# vtk DataFile Version 4.0
hesp visualization file
ASCII
DATASET UNSTRUCTURED_GRID
POINTS 3000 double
0.21289168 0.21289168 0.21289168
2.4789076 0.21289168 0.21289168
4.74832 0.21289168 0.21289168
7.0177411 0.21289168 0.21289168
9.287171 0.21289168 0.21289168
11.556548 0.21289168 0.21289168
13.826013 0.21289168 0.21289168
16.09539 0.21289168 0.21289168
18.364856 0.21289168 0.21289168
20.634233 0.21289168 0.21289168
22.903698 0.21289168 0.21289168
25.173075 0.21289168 0.21289168
27.44254 0.21289168 0.21289168
29.711917 0.21289168 0.21289168
31.981383 0.21289168 0.21289168
34.25076 0.21289168 0.21289168
36.520225 0.21289168 0.21289168
38.789602 0.21289168 0.21289168
41.059067 0.21289168 0.21289168
43.325039 0.21289168 0.21289168
0.21289168 2.4789076 0.21289168
2.4789076 2.4789076 0.21289168
4.74832 2.4789076 0.21289168
7.0177411 2.4789076 0.21289168
9.287171 2.4789076 0.21289168
11.556548 2.4789076 0.21289168
13.826013 2.4789076 0.21289168
16.09539 2.4789076 0.21289168
18.364856 2.4789076 0.21289168
20.634233 2.4789076 0.21289168
22.903698 2.4789076 0.21289168
25.173075 2.4789076 0.21289168
27.44254 2.4789076 0.21289168
29.711917 2.4789076 0.21289168
31.981383 2.4789076 0.21289168
34.25076 2.4789076 0.21289168
36.520225 2.4789076 0.21289168
38.789602 2.4789076 0.21289168
41.059067 2.4789076 0.21289168
43.325039 2.4789076 0.21289168
0.21289168 4.74832 0.21289168
2.4789076 4.74832 0.21289168
4.74832 4.74832 0.21289168
7.0177411 4.74832 0.21289168
9.287171 4.74832 0.21289168
11.556548 4.74832 0.21289168
13.826013 4.74832 0.21289168
16.09539 4.74832 0.21289168
18.364856 4.74832 0.21289168
20.634233 4.74832 0.21289168
22.903698 4.74832 0.21289168
25.173075 4.74832 0.21289168
27.44254 4.74832 0.21289168
29.711917 4.74832 0.21289168
31.981383 4.74832 0.21289168
34.25076 4.74832 0.21289168
36.520225 4.74832 0.21289168
38.789602 4.74832 0.21289168
41.059067 4.74832 0.21289168
43.325039 4.74832 0.21289168
0.21289168 7.0177411 0.21289168
2.4789076 7.0177411 0.21289168
4.74832 7.0177411 0.21289168
7.0177411 7.0177411 0.21289168
9.287171 7.0177411 0.21289168
11.556548 7.0177411 0.21289168
13.826013 7.0177411 0.21289168
16.09539 7.0177411 0.21289168
18.364856 7.0177411 0.21289168
20.634233 7.0177411 0.21289168
22.903698 7.0177411 0.21289168
25.173075 7.0177411 0.21289168
27.44254 7.0177411 0.21289168
29.711917 7.0177411 0.21289168
31.981383 7.0177411 0.21289168
34.25076 7.0177411 0.21289168
36.520225 7.0177411 0.21289168
38.789602 7.0177411 0.21289168
41.059067 7.0177411 0.21289168
43.325039 7.0177411 0.21289168
0.21289168 9.287171 0.21289168
2.4789076 9.287171 0.21289168
4.74832 9.287171 0.21289168
7.0177411 9.287171 0.21289168
9.287171 9.287171 0.21289168
11.556548 9.287171 0.21289168
13.826013 9.287171 0.21289168
16.09539 9.287171 0.21289168
18.364856 9.287171 0.21289168
20.634233 9.287171 0.21289168
22.903698 9.287171 0.21289168
25.173075 9.287171 0.21289168
27.44254 9.287171 0.21289168
29.711917 9.287171 0.21289168
31.981383 9.287171 0.21289168
34.25076 9.287171 0.21289168
36.520225 9.287171 0.21289168
38.789602 9.287171 0.21289168
41.059067 9.287171 0.21289168
43.325039 9.287171 0.21289168
0.21289168 11.556548 0.21289168
2.4789076 11.556548 0.21289168
4.74832 11.556548 0.21289168
7.0177411 11.556548 0.21289168
9.287171 11.556548 0.21289168
11.556548 11.556548 0.21289168
13.826013 11.556548 0.21289168
16.09539 11.556548 0.21289168
18.364856 11.556548 0.21289168
20.634233 11.556548 0.21289168
22.903698 11.556548 0.21289168
25.173075 11.556548 0.21289168
27.44254 11.556548 0.21289168
29.711917 11.556548 0.21289168
31.981383 11.556548 0.21289168
34.25076 11.556548 0.21289168
36.520225 11.556548 0.21289168
38.789602 11.556548 0.21289168
41.059067 11.556548 0.21289168
43.325039 11.556548 0.21289168
0.21289168 13.826013 0.21289168
2.4789076 13.826013 0.21289168
4.74832 13.826013 0.21289168
7.0177411 13.826013 0.21289168
9.287171 13.826013 0.21289168
11.556548 13.826013 0.21289168
13.826013 13.826013 0.21289168
16.09539 13.826013 0.21289168
18.364856 13.826013 0.21289168
20.634233 13.826013 0.21289168
22.903698 13.826013 0.21289168
25.173075 13.826013 0.21289168
27.44254 13.826013 0.21289168
29.711917 13.826013 0.21289168
31.981383 13.826013 0.21289168
34.25076 13.826013 0.21289168
36.520225 13.826013 0.21289168
38.789602 13.826013 0.21289168
41.059067 13.826013 0.21289168
43.325039 13.826013 0.21289168
0.21289168 16.09539 0.21289168
2.4789076 16.09539 0.21289168
4.74832 16.09539 0.21289168
7.0177411 16.09539 0.21289168
9.287171 16.09539 0.21289168
11.556548 16.09539 0.21289168
13.826013 16.09539 0.21289168
16.09539 16.09539 0.21289168
18.364856 16.09539 0.21289168
20.634233 16.09539 0.21289168
22.903698 16.09539 0.21289168
25.173075 16.09539 0.21289168
27.44254 16.09539 0.21289168
29.711917 16.09539 0.21289168
31.981383 16.09539 0.21289168
34.25076 16.09539 0.21289168
36.520225 16.09539 0.21289168
38.789602 16.09539 0.21289168
41.059067 16.09539 0.21289168
43.325039 16.09539 0.21289168
0.21289168 18.364856 0.21289168
2.4789076 18.364856 0.21289168
4.74832 18.364856 0.21289168
7.0177411 18.364856 0.21289168
9.287171 18.364856 0.21289168
11.556548 18.364856 0.21289168
13.826013 18.364856 0.21289168
16.09539 18.364856 0.21289168
18.364856 18.364856 0.21289168
20.634233 18.364856 0.21289168
22.903698 18.364856 0.21289168
25.173075 18.364856 0.21289168
27.44254 18.364856 0.21289168
29.711917 18.364856 0.21289168
31.981383 18.364856 0.21289168
34.25076 18.364856 0.21289168
36.520225 18.364856 0.21289168
38.789602 18.364856 0.21289168
41.059067 18.364856 0.21289168
43.325039 18.364856 0.21289168
0.21289168 20.634233 0.21289168
2.4789076 20.634233 0.21289168
4.74832 20.634233 0.21289168
7.0177411 20.634233 0.21289168
9.287171 20.634233 0.21289168
11.556548 20.634233 0.21289168
13.826013 20.634233 0.21289168
16.09539 20.634233 0.21289168
18.364856 20.634233 0.21289168
20.634233 20.634233 0.21289168
22.903698 20.634233 0.21289168
25.173075 20.634233 0.21289168
27.44254 20.634233 0.21289168
29.711917 20.634233 0.21289168
31.981383 20.634233 0.21289168
34.25076 20.634233 0.21289168
36.520225 20.634233 0.21289168
38.789602 20.634233 0.21289168
41.059067 20.634233 0.21289168
43.325039 20.634233 0.21289168
0.21289168 22.903698 0.21289168
2.4789076 22.903698 0.21289168
4.74832 22.903698 0.21289168
7.0177411 22.903698 0.21289168
9.287171 22.903698 0.21289168
11.556548 22.903698 0.21289168
13.826013 22.903698 0.21289168
16.09539 22.903698 0.21289168
18.364856 22.903698 0.21289168
20.634233 22.903698 0.21289168
22.903698 22.903698 0.21289168
25.173075 22.903698 0.21289168
27.44254 22.903698 0.21289168
29.711917 22.903698 0.21289168
31.981383 22.903698 0.21289168
34.25076 22.903698 0.21289168
36.520225 22.903698 0.21289168
38.789602 22.903698 0.21289168
41.059067 22.903698 0.21289168
43.325039 22.903698 0.21289168
0.21289168 25.173075 0.21289168
2.4789076 25.173075 0.21289168
4.74832 25.173075 0.21289168
7.0177411 25.173075 0.21289168
9.287171 25.173075 0.21289168
11.556548 25.173075 0.21289168
13.826013 25.173075 0.21289168
16.09539 25.173075 0.21289168
18.364856 25.173075 0.21289168
20.634233 25.173075 0.21289168
22.903698 25.173075 0.21289168
25.173075 25.173075 0.21289168
27.44254 25.173075 0.21289168
29.711917 25.173075 0.21289168
31.981383 25.173075 0.21289168
34.25076 25.173075 0.21289168
36.520225 25.173075 0.21289168
38.789602 25.173075 0.21289168
41.059067 25.173075 0.21289168
43.325039 25.173075 0.21289168
0.21289168 27.44254 0.21289168
2.4789076 27.44254 0.21289168
4.74832 27.44254 0.21289168
7.0177411 27.44254 0.21289168
9.287171 27.44254 0.21289168
11.556548 27.44254 0.21289168
13.826013 27.44254 0.21289168
16.09539 27.44254 0.21289168
18.364856 27.44254 0.21289168
20.634233 27.44254 0.21289168
22.903698 27.44254 0.21289168
25.173075 27.44254 0.21289168
27.44254 27.44254 0.21289168
29.711917 27.44254 0.21289168
31.981383 27.44254 0.21289168
34.25076 27.44254 0.21289168
36.520225 27.44254 0.21289168
38.789602 27.44254 0.21289168
41.059067 27.44254 0.21289168
43.325039 27.44254 0.21289168
0.21289168 29.711917 0.21289168
2.4789076 29.711917 0.21289168
4.74832 29.711917 0.21289168
7.0177411 29.711917 0.21289168
9.287171 29.711917 0.21289168
11.556548 29.711917 0.21289168
13.826013 29.711917 0.21289168
16.09539 29.711917 0.21289168
18.364856 29.711917 0.21289168
20.634233 29.711917 0.21289168
22.903698 29.711917 0.21289168
25.173075 29.711917 0.21289168
27.44254 29.711917 0.21289168
29.711917 29.711917 0.21289168
31.981383 29.711917 0.21289168
34.25076 29.711917 0.21289168
36.520225 29.711917 0.21289168
38.789602 29.711917 0.21289168
41.059067 29.711917 0.21289168
43.325039 29.711917 0.21289168
0.21289168 31.981383 0.21289168
2.4789076 31.981383 0.21289168
4.74832 31.981383 0.21289168
7.0177411 31.981383 0.21289168
9.287171 31.981383 0.21289168
11.556548 31.981383 0.21289168
13.826013 31.981383 0.21289168
16.09539 31.981383 0.21289168
18.364856 31.981383 0.21289168
20.634233 31.981383 0.21289168
22.903698 31.981383 0.21289168
25.173075 31.981383 0.21289168
27.44254 31.981383 0.21289168
29.711917 31.981383 0.21289168
31.981383 31.981383 0.21289168
34.25076 31.981383 0.21289168
36.520225 31.981383 0.21289168
38.789602 31.981383 0.21289168
41.059067 31.981383 0.21289168
43.325039 31.981383 0.21289168
0.21289168 34.25076 0.21289168
2.4789076 34.25076 0.21289168
4.74832 34.25076 0.21289168
7.0177411 34.25076 0.21289168
9.287171 34.25076 0.21289168
11.556548 34.25076 0.21289168
13.826013 34.25076 0.21289168
16.09539 34.25076 0.21289168
18.364856 34.25076 0.21289168
20.634233 34.25076 0.21289168
22.903698 34.25076 0.21289168
25.173075 34.25076 0.21289168
27.44254 34.25076 0.21289168
29.711917 34.25076 0.21289168
31.981383 34.25076 0.21289168
34.25076 34.25076 0.21289168
36.520225 34.25076 0.21289168
38.789602 34.25076 0.21289168
41.059067 34.25076 0.21289168
43.325039 34.25076 0.21289168
0.21289168 36.520225 0.21289168
2.4789076 36.520225 0.21289168
4.74832 36.520225 0.21289168
7.0177411 36.520225 0.21289168
9.287171 36.520225 0.21289168
[...]
POINT_DATA 3000
SCALARS m double
LOOKUP_TABLE default
1
1
1
1
1
1
1
1
1
1
1
1
1
1
1
1
1
1
1
1
1
1
1
1
1
1
1
1
1
1
1
1
1
1
1
1
1
1
1
1
1
1
1
1
1
1
1
1
1
1
1
1
1
1
1
1
1
1
1
1
1
1
1
1
1
1
1
1
1
1
1
1
1
1
1
1
1
1
1
1
1
1
1
1
1
1
1
1
1
1
1
1
1
1
1
1
1
1
1
1
1
1
1
1
1
1
1
1
1
1
1
1
1
1
1
1
1
1
1
1
1
1
1
1
1
1
1
1
1
1
1
1
1
1
1
1
1
1
1
1
1
1
1
1
1
1
1
1
1
1
1
1
1
1
1
1
1
1
1
1
1
1
1
1
1
1
1
1
1
1
1
1
1
1
1
1
1
1
1
1
1
1
1
1
1
1
1
1
1
1
1
1
1
1
1
1
1
1
1
1
1
1
1
1
1
1
1
1
1
1
1
1
1
1
1
1
1
1
1
1
1
1
1
1
1
1
1
1
1
1
1
1
1
1
1
1
1
1
1
1
1
1
1
1
1
1
1
1
1
1
1
1
1
1
1
1
1
1
1
1
1
1
1
1
1
1
1
1
1
1
1
1
1
1
1
1
1
1
1
1
1
1
1
1
1
1
1
1
1
1
1
1
1
1
1
1
1
1
1
1
1
1
1
1
1
1
1
1
1
1
1
1
1
1
1
1
1
1
1
1
1
1
1
1
1
1
1
1
1
1
1
1
1
1
1
1
1
1
1
1
1
1
1
1
1
1
1
1
1
1
1
1
1
1
1
1
1
1
1
1
1
1
1
1
1
1
1
1
1
1
1
1
1
1
1
1
1
1
1
1
1
1
1
1
1
1
1
1
1
1
1
1
1
1
1
1
1
1
1
1
1
1
1
1
1
1
1
1
1
1
1
1
1
1
1
1
1
1
1
1
1
1
1
1
1
1
1
1
1
1
1
1
1
1
1
1
1
1
1
1
1
1
1
1
1
1
1
1
1
1
1
1
1
1
1
1
1
1
1
1
1
1
1
1
1
1
1
1
1
1
1
1
1
1
1
1
1
1
1
1
1
1
1
1
1
1
1
1
1
1
1
1
1
1
1
1
1
1
1
1
1
1
1
1
1
1
1
1
1
1
1
1
1
1
1
1
1
1
1
1
1
1
1
1
1
1
1
1
1
1
1
1
1
1
1
1
1
1
1
1
1
1
1
1
1
1
1
1
1
1
1
1
1
1
1
1
1
1
1
1
1
1
1
1
1
1
1
1
1
1
1
1
1
1
1
1
1
1
1
1
1
1
1
1
1
1
1
1
1
1
1
1
1
1
1
1
1
1
1
1
1
1
1
1
1
1
1
1
1
1
1
1
1
1
1
1
1
1
1
1
1
1
1
1
1
1
1
1
1
1
1
1
1
1
1
1
1
1
1
1
1
1
1
1
1
1
1
1
1
1
1
1
1
1
1
1
1
1
1
1
1
1
1
1
1
1
1
1
1
1
1
1
1
1
1
1
1
1
1
1
1
1
1
1
1
1
1
1
1
1
1
1
1
1
1
1
1
1
1
1
1
1
1
1
1
1
1
1
1
1
1
1
1
1
1
1
1
1
1
1
1
1
1
1
1
1
1
1
1
1
1
1
1
1
1
1
1
1
1
1
1
1
1
1
1
1
1
1
1
1
1
1
1
1
1
1
1
1
1
1
1
1
1
1
1
1
1
1
1
1
1
1
1
1
1
1
1
1
1
1
1
1
1
1
1
1
1
1
1
1
1
1
1
1
1
1
1
1
1
1
1
1
1
1
1
1
1
1
1
1
1
1
1
1
1
1
1
1
1
1
1
1
1
1
1
1
1
1
1
1
1
1
1
1
1
1
1
1
1
1
1
1
1
1
1
1
1
1
1
1
1
1
1
1
1
1
1
1
1
1
1
1
1
1
1
1
1
1
1
1
1
1
1
1
1
1
1
1
1
1
1
1
1
1
1
1
1
1
1
1
1
1
1
1
1
1
1
1
1
1
1
1
1
1
1
1
1
1
1
1
1
1
1
1
1
1
1
1
1
1
1
1
1
1
1
1
1
1
1
1
1
1
1
1
1
1
1
1
1
1
1
1
1
1
1
1
1
1
1
1
1
1
1
1
1
1
1
1
1
1
1
1
1
1
1
1
1
1
1
1
1
1
1
1
1
1
1
1
1
1
1
1
1
1
1
1
1
1
1
1
1
1
1
1
1
1
1
1
1
1
1
1
1
1
1
1
1
1
1
1
1
1
1
1
1
1
1
1
1
1
1
1
1
1
1
1
1
1
1
1
1
1
1
1
1
1
1
1
1
1
1
1
1
1
1
1
1
1
1
1
1
1
1
1
1
1
1
1
1
1
1
1
1
1
1
1
1
1
1
1
1
1
1
1
1
1
1
1
1
1
1
1
1
1
1
1
1
1
1
1
1
1
1
1
1
1
1
1
1
1
1
1
1
1
1
1
1
1
1
1
1
1
1
1
1
1
1
1
1
1
1
1
1
1
1
1
1
1
1
1
1
1
1
1
1
1
1
1
1
1
1
1
1
1
1
1
1
1
1
1
1
1
1
1
1
1
1
1
1
1
1
1
1
1
1
1
1
1
1
1
1
1
1
1
1
1
1
1
1
1
1
1
1
1
1
1
1
1
1
1
1
1
1
1
1
1
1
1
1
1
1
1
1
1
1
1
1
1
1
1
1
1
1
1
1
1
1
1
1
1
1
1
1
1
1
1
1
1
1
1
1
1
1
1
1
1
1
1
1
1
1
1
1
1
1
1
1
1
1
1
1
1
1
1
1
1
1
1
1
1
1
1
1
1
1
1
1
1
1
1
1
1
1
1
1
1
1
1
1
1
1
1
1
1
1
1
1
1
1
1
1
1
1
1
1
1
1
1
1
1
1
1
1
1
1
1
1
1
1
1
1
1
1
1
1
1
1
1
1
1
1
1
1
1
1
1
1
1
1
1
1
1
1
1
1
1
1
1
1
1
1
1
1
1
1
1
1
1
1
1
1
1
1
1
1
1
1
1
1
1
1
1
1
1
1
1
1
1
1
1
1
1
1
1
1
1
1
1
1
1
1
1
1
1
1
1
1
1
1
1
1
1
1
1
1
1
1
1
1
1
1
1
1
1
1
1
1
1
1
1
1
1
1
1
1
1
1
1
1
1
1
1
1
1
1
1
1
1
1
1
1
1
1
1
1
1
1
1
1
1
1
1
1
1
1
1
1
1
1
1
1
1
1
1
1
1
1
1
1
1
1
1
1
1
1
1
1
1
1
1
1
1
1
1
1
1
1
1
1
1
1
1
1
1
1
1
1
1
1
1
1
1
1
1
1
1
1
1
1
1
1
1
1
1
1
1
1
1
1
1
1
1
1
1
1
1
1
1
1
1
1
1
1
1
1
1
1
1
1
1
1
1
1
1
1
1
1
1
1
1
1
1
1
1
1
1
1
1
1
1
1
1
1
1
1
1
1
1
1
1
1
1
1
1
1
1
1
1
1
1
1
1
1
1
1
1
1
1
1
1
1
1
1
1
1
1
1
1
1
1
1
1
1
1
1
1
1
1
1
1
1
1
1
1
1
1
1
1
1
1
1
1
1
1
1
1
1
1
1
1
1
1
1
1
1
1
1
1
1
1
1
1
1
1
1
1
1
1
1
1
1
1
1
1
1
1
1
1
1
1
1
1
1
1
1
1
1
1
1
1
1
1
1
1
1
1
1
1
1
1
1
1
1
1
1
1
1
1
1
1
1
1
1
1
1
1
1
1
1
1
1
1
1
1
1
1
1
1
1
1
1
1
1
1
1
1
1
1
1
1
1
1
1
1
1
1
1
1
1
1
1
1
1
1
1
1
1
1
1
1
1
1
1
1
1
1
1
1
1
1
1
1
1
1
1
1
1
1
1
1
1
1
1
1
1
1
1
1
1
1
1
1
1
1
1
1
1
1
1
1
1
1
1
1
1
1
1
1
1
1
1
1
1
1
1
1
1
1
1
1
1
1
1
1
1
1
1
1
1
1
1
1
1
1
1
1
1
1
1
1
1
1
1
1
1
1
1
1
1
1
1
1
1
1
1
1
1
1
1
1
1
1
1
1
1
1
1
1
1
1
1
1
1
1
1
1
1
1
1
1
1
1
1
1
1
1
1
1
1
1
1
1
1
1
1
1
1
1
1
1
1
1
1
1
1
1
1
1
1
1
1
1
1
1
1
1
1
1
1
1
1
1
1
1
1
1
1
1
1
1
1
1
1
1
1
1
1
1
1
1
1
1
1
1
1
1
1
1
1
1
1
1
1
1
1
1
1
1
1
1
1
1
1
1
1
1
1
1
1
1
1
1
1
1
1
1
1
1
1
1
1
1
1
1
1
1
1
1
1
1
1
1
1
1
1
1
1
1
1
1
1
1
1
1
1
1
1
1
1
1
1
1
1
1
1
1
1
1
1
1
1
1
1
1
1
1
1
1
1
1
1
1
1
1
1
1
1
1
1
1
1
1
1
1
1
1
1
1
1
1
1
1
1
1
1
1
1
1
1
1
1
1
1
1
1
1
1
1
1
1
1
1
1
1
1
1
1
1
1
1
1
1
1
1
1
1
1
1
1
1
1
1
1
1
1
1
1
1
1
1
1
1
1
1
1
1
1
1
1
1
1
1
1
1
1
1
1
1
1
1
1
1
1
1
1
1
1
1
1
1
1
1
1
1
1
1
1
1
1
1
1
1
1
1
1
1
1
1
1
1
1
1
1
1
1
1
1
1
1
1
1
1
1
1
1
1
1
1
1
1
1
1
1
1
1
1
1
1
1
1
1
1
1
1
1
1
1
1
1
1
1
1
1
1
1
1
1
1
1
1
1
1
1
1
1
1
1
1
1
1
1
1
1
1
1
1
1
1
1
1
1
1
1
1
1
1
1
1
1
1
1
1
1
1
1
1
1
1
1
1
1
1
1
1
1
1
1
1
1
1
1
1
1
1
1
1
1
1
1
1
1
1
1
1
1
1
1
1
1
1
1
1
1
1
1
1
1
1
1
1
1
1
1
1
1
1
1
1
1
1
1
1
1
1
1
1
1
1
1
1
1
1
1
1
1
1
1
1
1
1
1
1
1
1
1
1
1
1
1
1
1
1
1
1
1
1
1
1
1
1
1
1
1
1
1
1
1
1
1
1
1
1
1
1
1
1
1
1
1
1
1
1
1
1
1
1
1
1
1
1
1
1
1
1
1
1
1
1
1
1
1
1
1
1
1
1
1
1
1
1
1
1
1
1
1
1
1
1
1
1
1
1
1
1
1
1
1
1
1
1
1
1
1
1
1
1
1
1
1
1
1
1
1
1
1
1
1
1
1
1
1
1
1
1
1
1
1
1
1
1
1
1
1
1
1
1
1
1
1
1
1
1
1
1
1
1
1
1
1
1
1
1
1
1
1
1
1
1
1
1
1
1
1
1
1
1
1
1
1
1
1
1
1
1
1
1
1
1
1
1
1
1
1
1
1
1
1
1
1
1
1
1
1
1
1
1
1
1
1
1
1
1
1
1
1
1
1
1
1
1
1
1
1
1
1
1
1
1
1
1
1
1
1
1
1
1
1
1
1
1
1
1
1
1
1
1
1
1
1
1
1
1
1
1
1
1
1
1
1
1
1
1
1
1
1
1
1
1
1
1
1
1
1
1
1
1
1
1
1
1
1
1
1
1
1
1
1
1
1
1
1
1
1
1
1
1
1
1
1
1
1
1
1
1
1
1
1
1
1
1
1
1
1
1
1
1
1
1
1
1
1
1
1
1
1
1
1
1
1
1
1
1
1
1
1
1
1
1
1
1
1
1
1
1
1
1
1
1
1
1
1
1
1
1
1
1
1
1
1
1
1
1
1
1
1
1
1
1
1
1
1
1
1
1
1
1
1
1
1
1
1
1
1
1
1
1
1
1
1
1
1
1
1
1
1
1
1
1
1
1
1
1
1
1
1
1
1
1
1
1
1
1
1
1
1
1
1
1
1
1
1
1
1
1
1
1
1
1
1
1
1
1
1
1
1
1
1
1
1
1
1
1
1
1
1
1
1
1
1
1
1
1
1
1
1
1
1
1
1
1
1
1
1
1
1
1
1
1
1
1
1
1
1
1
1
1
1
1
1
1
1
1
1
1
1
1
1
1
1
1
1
1
1
1
1
1
1
1
1
1
1
1
1
1
1
1
1
1
1
1
1
1
1
1
1
1
1
1
1
1
1
1
1
1
1
1
1
1
1
1
1
1
1
1
1
1
1
1
1
1
1
1
1
1
1
1
1
1
1
1
1
1
1
1
1
1
1
1
1
1
1
1
1
1
1
1
1
1
1
1
1
1
1
1
1
1
1
1
1
1
1
1
1
1
1
1
1
1
1
1
1
1
1
1
1
1
1
1
1
1
1
1
1
1
1
1
1
1
1
1
1
1
1
1
1
1
1
1
1
1
1
1
1
1
1
1
1
1
1
1
1
1
1
1
1
1
1
1
1
1
1
1
1
1
1
1
1
1
1
1
1
1
1
1
1
1
1
1
1
1
1
1
1
1
1
1
1
1
1
1
1
1
1
1
1
1
1
1
1
1
1
1
1
1
1
1
1
1
1
1
1
1
1
1
1
1
1
1
1
1
1
1
1
1
1
1
1
1
1
1
1
1
1
1
1
1
1
1
1
1
1
1
1
1
1
1
1
1
1
1
1
1
1
1
1
1
1
1
1
1
VECTORS v double
-1.1435935 -1.1435935 -1.1435935
-2.3749142 -1.1435935 -1.1435935
-3.599997 -1.1435935 -1.1435935
-4.8250845 -1.1435935 -1.1435935
-6.0501769 -1.1435935 -1.1435935
-7.2752407 -1.1435935 -1.1435935
-8.500352 -1.1435935 -1.1435935
-9.7254158 -1.1435935 -1.1435935
-10.950527 -1.1435935 -1.1435935
-12.175591 -1.1435935 -1.1435935
-13.400702 -1.1435935 -1.1435935
-14.625766 -1.1435935 -1.1435935
-15.850877 -1.1435935 -1.1435935
-17.075941 -1.1435935 -1.1435935
-18.301052 -1.1435935 -1.1435935
-19.526116 -1.1435935 -1.1435935
-20.751228 -1.1435935 -1.1435935
-21.976291 -1.1435935 -1.1435935
-23.201403 -1.1435935 -1.1435935
-24.4327 -1.1435935 -1.1435935
-1.1435935 -2.3749142 -1.1435935
-2.3749142 -2.3749142 -1.1435935
-3.599997 -2.3749142 -1.1435935
-4.8250845 -2.3749142 -1.1435935
-6.0501769 -2.3749142 -1.1435935
-7.2752407 -2.3749142 -1.1435935
-8.500352 -2.3749142 -1.1435935
-9.7254158 -2.3749142 -1.1435935
-10.950527 -2.3749142 -1.1435935
-12.175591 -2.3749142 -1.1435935
-13.400702 -2.3749142 -1.1435935
-14.625766 -2.3749142 -1.1435935
-15.850877 -2.3749142 -1.1435935
-17.075941 -2.3749142 -1.1435935
-18.301052 -2.3749142 -1.1435935
-19.526116 -2.3749142 -1.1435935
-20.751228 -2.3749142 -1.1435935
-21.976291 -2.3749142 -1.1435935
-23.201403 -2.3749142 -1.1435935
-24.4327 -2.3749142 -1.1435935
-1.1435935 -3.599997 -1.1435935
-2.3749142 -3.599997 -1.1435935
-3.599997 -3.599997 -1.1435935
-4.8250845 -3.599997 -1.1435935
-6.0501769 -3.599997 -1.1435935
-7.2752407 -3.599997 -1.1435935
-8.500352 -3.599997 -1.1435935
-9.7254158 -3.599997 -1.1435935
-10.950527 -3.599997 -1.1435935
-12.175591 -3.599997 -1.1435935
-13.400702 -3.599997 -1.1435935
-14.625766 -3.599997 -1.1435935
-15.850877 -3.599997 -1.1435935
-17.075941 -3.599997 -1.1435935
-18.301052 -3.599997 -1.1435935
-19.526116 -3.599997 -1.1435935
-20.751228 -3.599997 -1.1435935
-21.976291 -3.599997 -1.1435935
-23.201403 -3.599997 -1.1435935
-24.4327 -3.599997 -1.1435935
-1.1435935 -4.8250845 -1.1435935
-2.3749142 -4.8250845 -1.1435935
-3.599997 -4.8250845 -1.1435935
-4.8250845 -4.8250845 -1.1435935
-6.0501769 -4.8250845 -1.1435935
-7.2752407 -4.8250845 -1.1435935
-8.500352 -4.8250845 -1.1435935
-9.7254158 -4.8250845 -1.1435935
-10.950527 -4.8250845 -1.1435935
-12.175591 -4.8250845 -1.1435935
-13.400702 -4.8250845 -1.1435935
-14.625766 -4.8250845 -1.1435935
-15.850877 -4.8250845 -1.1435935
-17.075941 -4.8250845 -1.1435935
-18.301052 -4.8250845 -1.1435935
-19.526116 -4.8250845 -1.1435935
-20.751228 -4.8250845 -1.1435935
-21.976291 -4.8250845 -1.1435935
-23.201403 -4.8250845 -1.1435935
-24.4327 -4.8250845 -1.1435935
-1.1435935 -6.0501769 -1.1435935
-2.3749142 -6.0501769 -1.1435935
-3.599997 -6.0501769 -1.1435935
-4.8250845 -6.0501769 -1.1435935
-6.0501769 -6.0501769 -1.1435935
-7.2752407 -6.0501769 -1.1435935
-8.500352 -6.0501769 -1.1435935
-9.7254158 -6.0501769 -1.1435935
-10.950527 -6.0501769 -1.1435935
-12.175591 -6.0501769 -1.1435935
-13.400702 -6.0501769 -1.1435935
-14.625766 -6.0501769 -1.1435935
-15.850877 -6.0501769 -1.1435935
-17.075941 -6.0501769 -1.1435935
-18.301052 -6.0501769 -1.1435935
-19.526116 -6.0501769 -1.1435935
-20.751228 -6.0501769 -1.1435935
-21.976291 -6.0501769 -1.1435935
-23.201403 -6.0501769 -1.1435935
-24.4327 -6.0501769 -1.1435935
-1.1435935 -7.2752407 -1.1435935
-2.3749142 -7.2752407 -1.1435935
-3.599997 -7.2752407 -1.1435935
-4.8250845 -7.2752407 -1.1435935
-6.0501769 -7.2752407 -1.1435935
-7.2752407 -7.2752407 -1.1435935
-8.500352 -7.2752407 -1.1435935
-9.7254158 -7.2752407 -1.1435935
-10.950527 -7.2752407 -1.1435935
-12.175591 -7.2752407 -1.1435935
-13.400702 -7.2752407 -1.1435935
-14.625766 -7.2752407 -1.1435935
-15.850877 -7.2752407 -1.1435935
-17.075941 -7.2752407 -1.1435935
-18.301052 -7.2752407 -1.1435935
-19.526116 -7.2752407 -1.1435935
-20.751228 -7.2752407 -1.1435935
-21.976291 -7.2752407 -1.1435935
-23.201403 -7.2752407 -1.1435935
-24.4327 -7.2752407 -1.1435935
-1.1435935 -8.500352 -1.1435935
-2.3749142 -8.500352 -1.1435935
-3.599997 -8.500352 -1.1435935
-4.8250845 -8.500352 -1.1435935
-6.0501769 -8.500352 -1.1435935
-7.2752407 -8.500352 -1.1435935
-8.500352 -8.500352 -1.1435935
-9.7254158 -8.500352 -1.1435935
-10.950527 -8.500352 -1.1435935
-12.175591 -8.500352 -1.1435935
-13.400702 -8.500352 -1.1435935
-14.625766 -8.500352 -1.1435935
-15.850877 -8.500352 -1.1435935
-17.075941 -8.500352 -1.1435935
-18.301052 -8.500352 -1.1435935
-19.526116 -8.500352 -1.1435935
-20.751228 -8.500352 -1.1435935
-21.976291 -8.500352 -1.1435935
-23.201403 -8.500352 -1.1435935
-24.4327 -8.500352 -1.1435935
-1.1435935 -9.7254158 -1.1435935
-2.3749142 -9.7254158 -1.1435935
-3.599997 -9.7254158 -1.1435935
-4.8250845 -9.7254158 -1.1435935
-6.0501769 -9.7254158 -1.1435935
-7.2752407 -9.7254158 -1.1435935
-8.500352 -9.7254158 -1.1435935
-9.7254158 -9.7254158 -1.1435935
-10.950527 -9.7254158 -1.1435935
-12.175591 -9.7254158 -1.1435935
-13.400702 -9.7254158 -1.1435935
-14.625766 -9.7254158 -1.1435935
-15.850877 -9.7254158 -1.1435935
-17.075941 -9.7254158 -1.1435935
-18.301052 -9.7254158 -1.1435935
-19.526116 -9.7254158 -1.1435935
-20.751228 -9.7254158 -1.1435935
-21.976291 -9.7254158 -1.1435935
-23.201403 -9.7254158 -1.1435935
-24.4327 -9.7254158 -1.1435935
-1.1435935 -10.950527 -1.1435935
-2.3749142 -10.950527 -1.1435935
-3.599997 -10.950527 -1.1435935
-4.8250845 -10.950527 -1.1435935
-6.0501769 -10.950527 -1.1435935
-7.2752407 -10.950527 -1.1435935
-8.500352 -10.950527 -1.1435935
-9.7254158 -10.950527 -1.1435935
-10.950527 -10.950527 -1.1435935
-12.175591 -10.950527 -1.1435935
-13.400702 -10.950527 -1.1435935
-14.625766 -10.950527 -1.1435935
-15.850877 -10.950527 -1.1435935
-17.075941 -10.950527 -1.1435935
-18.301052 -10.950527 -1.1435935
-19.526116 -10.950527 -1.1435935
-20.751228 -10.950527 -1.1435935
-21.976291 -10.950527 -1.1435935
-23.201403 -10.950527 -1.1435935
-24.4327 -10.950527 -1.1435935
-1.1435935 -12.175591 -1.1435935
-2.3749142 -12.175591 -1.1435935
-3.599997 -12.175591 -1.1435935
-4.8250845 -12.175591 -1.1435935
-6.0501769 -12.175591 -1.1435935
-7.2752407 -12.175591 -1.1435935
-8.500352 -12.175591 -1.1435935
-9.7254158 -12.175591 -1.1435935
-10.950527 -12.175591 -1.1435935
-12.175591 -12.175591 -1.1435935
-13.400702 -12.175591 -1.1435935
-14.625766 -12.175591 -1.1435935
-15.850877 -12.175591 -1.1435935
-17.075941 -12.175591 -1.1435935
-18.301052 -12.175591 -1.1435935
-19.526116 -12.175591 -1.1435935
-20.751228 -12.175591 -1.1435935
-21.976291 -12.175591 -1.1435935
-23.201403 -12.175591 -1.1435935
-24.4327 -12.175591 -1.1435935
-1.1435935 -13.400702 -1.1435935
-2.3749142 -13.400702 -1.1435935
-3.599997 -13.400702 -1.1435935
-4.8250845 -13.400702 -1.1435935
-6.0501769 -13.400702 -1.1435935
-7.2752407 -13.400702 -1.1435935
-8.500352 -13.400702 -1.1435935
-9.7254158 -13.400702 -1.1435935
-10.950527 -13.400702 -1.1435935
-12.175591 -13.400702 -1.1435935
-13.400702 -13.400702 -1.1435935
-14.625766 -13.400702 -1.1435935
-15.850877 -13.400702 -1.1435935
-17.075941 -13.400702 -1.1435935
-18.301052 -13.400702 -1.1435935
-19.526116 -13.400702 -1.1435935
-20.751228 -13.400702 -1.1435935
-21.976291 -13.400702 -1.1435935
-23.201403 -13.400702 -1.1435935
-24.4327 -13.400702 -1.1435935
-1.1435935 -14.625766 -1.1435935
-2.3749142 -14.625766 -1.1435935
-3.599997 -14.625766 -1.1435935
-4.8250845 -14.625766 -1.1435935
-6.0501769 -14.625766 -1.1435935
-7.2752407 -14.625766 -1.1435935
-8.500352 -14.625766 -1.1435935
-9.7254158 -14.625766 -1.1435935
-10.950527 -14.625766 -1.1435935
-12.175591 -14.625766 -1.1435935
-13.400702 -14.625766 -1.1435935
-14.625766 -14.625766 -1.1435935
-15.850877 -14.625766 -1.1435935
-17.075941 -14.625766 -1.1435935
-18.301052 -14.625766 -1.1435935
-19.526116 -14.625766 -1.1435935
-20.751228 -14.625766 -1.1435935
-21.976291 -14.625766 -1.1435935
-23.201403 -14.625766 -1.1435935
-24.4327 -14.625766 -1.1435935
-1.1435935 -15.850877 -1.1435935
-2.3749142 -15.850877 -1.1435935
-3.599997 -15.850877 -1.1435935
-4.8250845 -15.850877 -1.1435935
-6.0501769 -15.850877 -1.1435935
-7.2752407 -15.850877 -1.1435935
-8.500352 -15.850877 -1.1435935
-9.7254158 -15.850877 -1.1435935
-10.950527 -15.850877 -1.1435935
-12.175591 -15.850877 -1.1435935
-13.400702 -15.850877 -1.1435935
-14.625766 -15.850877 -1.1435935
-15.850877 -15.850877 -1.1435935
-17.075941 -15.850877 -1.1435935
-18.301052 -15.850877 -1.1435935
-19.526116 -15.850877 -1.1435935
-20.751228 -15.850877 -1.1435935
-21.976291 -15.850877 -1.1435935
-23.201403 -15.850877 -1.1435935
-24.4327 -15.850877 -1.1435935
-1.1435935 -17.075941 -1.1435935
-2.3749142 -17.075941 -1.1435935
-3.599997 -17.075941 -1.1435935
-4.8250845 -17.075941 -1.1435935
-6.0501769 -17.075941 -1.1435935
-7.2752407 -17.075941 -1.1435935
-8.500352 -17.075941 -1.1435935
-9.7254158 -17.075941 -1.1435935
-10.950527 -17.075941 -1.1435935
-12.175591 -17.075941 -1.1435935
-13.400702 -17.075941 -1.1435935
-14.625766 -17.075941 -1.1435935
-15.850877 -17.075941 -1.1435935
-17.075941 -17.075941 -1.1435935
-18.301052 -17.075941 -1.1435935
-19.526116 -17.075941 -1.1435935
-20.751228 -17.075941 -1.1435935
-21.976291 -17.075941 -1.1435935
-23.201403 -17.075941 -1.1435935
-24.4327 -17.075941 -1.1435935
-1.1435935 -18.301052 -1.1435935
-2.3749142 -18.301052 -1.1435935
-3.599997 -18.301052 -1.1435935
-4.8250845 -18.301052 -1.1435935
-6.0501769 -18.301052 -1.1435935
-7.2752407 -18.301052 -1.1435935
-8.500352 -18.301052 -1.1435935
-9.7254158 -18.301052 -1.1435935
-10.950527 -18.301052 -1.1435935
-12.175591 -18.301052 -1.1435935
-13.400702 -18.301052 -1.1435935
-14.625766 -18.301052 -1.1435935
-15.850877 -18.301052 -1.1435935
-17.075941 -18.301052 -1.1435935
-18.301052 -18.301052 -1.1435935
-19.526116 -18.301052 -1.1435935
-20.751228 -18.301052 -1.1435935
-21.976291 -18.301052 -1.1435935
-23.201403 -18.301052 -1.1435935
-24.4327 -18.301052 -1.1435935
-1.1435935 -19.526116 -1.1435935
-2.3749142 -19.526116 -1.1435935
-3.599997 -19.526116 -1.1435935
-4.8250845 -19.526116 -1.1435935
-6.0501769 -19.526116 -1.1435935
-7.2752407 -19.526116 -1.1435935
-8.500352 -19.526116 -1.1435935
-9.7254158 -19.526116 -1.1435935
-10.950527 -19.526116 -1.1435935
-12.175591 -19.526116 -1.1435935
-13.400702 -19.526116 -1.1435935
-14.625766 -19.526116 -1.1435935
-15.850877 -19.526116 -1.1435935
-17.075941 -19.526116 -1.1435935
-18.301052 -19.526116 -1.1435935
-19.526116 -19.526116 -1.1435935
-20.751228 -19.526116 -1.1435935
-21.976291 -19.526116 -1.1435935
-23.201403 -19.526116 -1.1435935
-24.4327 -19.526116 -1.1435935
-1.1435935 -20.751228 -1.1435935
-2.3749142 -20.751228 -1.1435935
-3.599997 -20.751228 -1.1435935
-4.8250845 -20.751228 -1.1435935
-6.0501769 -20.751228 -1.1435935
-7.2752407 -20.751228 -1.1435935
-8.500352 -20.751228 -1.1435935
-9.7254158 -20.751228 -1.1435935
-10.950527 -20.751228 -1.1435935
-12.175591 -20.751228 -1.1435935
-13.400702 -20.751228 -1.1435935
-14.625766 -20.751228 -1.1435935
-15.850877 -20.751228 -1.1435935
-17.075941 -20.751228 -1.1435935
-18.301052 -20.751228 -1.1435935
-19.526116 -20.751228 -1.1435935
-20.751228 -20.751228 -1.1435935
-21.976291 -20.751228 -1.1435935
-23.201403 -20.751228 -1.1435935
-24.4327 -20.751228 -1.1435935
-1.1435935 -21.976291 -1.1435935
-2.3749142 -21.976291 -1.1435935
-3.599997 -21.976291 -1.1435935
-4.8250845 -21.976291 -1.1435935
-6.0501769 -21.976291 -1.1435935
-7.2752407 -21.976291 -1.1435935
-8.500352 -21.976291 -1.1435935
-9.7254158 -21.976291 -1.1435935
-10.950527 -21.976291 -1.1435935
-12.175591 -21.976291 -1.1435935
-13.400702 -21.976291 -1.1435935
-14.625766 -21.976291 -1.1435935
-15.850877 -21.976291 -1.1435935
-17.075941 -21.976291 -1.1435935
-18.301052 -21.976291 -1.1435935
-19.526116 -21.976291 -1.1435935
-20.751228 -21.976291 -1.1435935
-21.976291 -21.976291 -1.1435935
-23.201403 -21.976291 -1.1435935
-24.4327 -21.976291 -1.1435935
-1.1435935 -23.201403 -1.1435935
-2.3749142 -23.201403 -1.1435935
-3.599997 -23.201403 -1.1435935
-4.8250845 -23.201403 -1.1435935
-6.0501769 -23.201403 -1.1435935
-7.2752407 -23.201403 -1.1435935
-8.500352 -23.201403 -1.1435935
-9.7254158 -23.201403 -1.1435935
-10.950527 -23.201403 -1.1435935
-12.175591 -23.201403 -1.1435935
-13.400702 -23.201403 -1.1435935
-14.625766 -23.201403 -1.1435935
-15.850877 -23.201403 -1.1435935
-17.075941 -23.201403 -1.1435935
-18.301052 -23.201403 -1.1435935
-19.526116 -23.201403 -1.1435935
-20.751228 -23.201403 -1.1435935
-21.976291 -23.201403 -1.1435935
-23.201403 -23.201403 -1.1435935
-24.4327 -23.201403 -1.1435935
-1.1435935 -24.4327 -1.1435935
-2.3749142 -24.4327 -1.1435935
-3.599997 -24.4327 -1.1435935
-4.8250845 -24.4327 -1.1435935
-6.0501769 -24.4327 -1.1435935
-7.2752407 -24.4327 -1.1435935
-8.500352 -24.4327 -1.1435935
-9.7254158 -24.4327 -1.1435935
-10.950527 -24.4327 -1.1435935
-12.175591 -24.4327 -1.1435935
-13.400702 -24.4327 -1.1435935
-14.625766 -24.4327 -1.1435935
-15.850877 -24.4327 -1.1435935
-17.075941 -24.4327 -1.1435935
-18.301052 -24.4327 -1.1435935
-19.526116 -24.4327 -1.1435935
-20.751228 -24.4327 -1.1435935
-21.976291 -24.4327 -1.1435935
-23.201403 -24.4327 -1.1435935
-24.4327 -24.4327 -1.1435935
-1.1435935 -1.1435935 -2.3749142
-2.3749142 -1.1435935 -2.3749142
-3.599997 -1.1435935 -2.3749142
-4.8250845 -1.1435935 -2.3749142
-6.0501769 -1.1435935 -2.3749142
-7.2752407 -1.1435935 -2.3749142
-8.500352 -1.1435935 -2.3749142
-9.7254158 -1.1435935 -2.3749142
-10.950527 -1.1435935 -2.3749142
-12.175591 -1.1435935 -2.3749142
-13.400702 -1.1435935 -2.3749142
-14.625766 -1.1435935 -2.3749142
-15.850877 -1.1435935 -2.3749142
-17.075941 -1.1435935 -2.3749142
-18.301052 -1.1435935 -2.3749142
-19.526116 -1.1435935 -2.3749142
-20.751228 -1.1435935 -2.3749142
-21.976291 -1.1435935 -2.3749142
-23.201403 -1.1435935 -2.3749142
-24.4327 -1.1435935 -2.3749142
-1.1435935 -2.3749142 -2.3749142
-2.3749142 -2.3749142 -2.3749142
-3.599997 -2.3749142 -2.3749142
-4.8250845 -2.3749142 -2.3749142
-6.0501769 -2.3749142 -2.3749142
-7.2752407 -2.3749142 -2.3749142
-8.500352 -2.3749142 -2.3749142