# vtk DataFile Version 4.0
hesp visualization file
ASCII
DATASET UNSTRUCTURED_GRID
POINTS 3000 double
0.15306865 0.15306865 0.15306865
2.3547112 0.15306865 0.15306865
4.5600577 0.15306865 0.15306865
6.7654128 0.15306865 0.15306865
8.9707764 0.15306865 0.15306865
11.176089 0.15306865 0.15306865
13.381487 0.15306865 0.15306865
15.586799 0.15306865 0.15306865
17.792197 0.15306865 0.15306865
19.997509 0.15306865 0.15306865
22.202907 0.15306865 0.15306865
24.408219 0.15306865 0.15306865
26.613617 0.15306865 0.15306865
28.818929 0.15306865 0.15306865
31.024327 0.15306865 0.15306865
33.229639 0.15306865 0.15306865
35.435037 0.15306865 0.15306865
37.640349 0.15306865 0.15306865
39.845747 0.15306865 0.15306865
42.047347 0.15306865 0.15306865
0.15306865 2.3547112 0.15306865
2.3547112 2.3547112 0.15306865
4.5600577 2.3547112 0.15306865
6.7654128 2.3547112 0.15306865
8.9707764 2.3547112 0.15306865
11.176089 2.3547112 0.15306865
13.381487 2.3547112 0.15306865
15.586799 2.3547112 0.15306865
17.792197 2.3547112 0.15306865
19.997509 2.3547112 0.15306865
22.202907 2.3547112 0.15306865
24.408219 2.3547112 0.15306865
26.613617 2.3547112 0.15306865
28.818929 2.3547112 0.15306865
31.024327 2.3547112 0.15306865
33.229639 2.3547112 0.15306865
35.435037 2.3547112 0.15306865
37.640349 2.3547112 0.15306865
39.845747 2.3547112 0.15306865
42.047347 2.3547112 0.15306865
0.15306865 4.5600577 0.15306865
2.3547112 4.5600577 0.15306865
4.5600577 4.5600577 0.15306865
6.7654128 4.5600577 0.15306865
8.9707764 4.5600577 0.15306865
11.176089 4.5600577 0.15306865
13.381487 4.5600577 0.15306865
15.586799 4.5600577 0.15306865
17.792197 4.5600577 0.15306865
19.997509 4.5600577 0.15306865
22.202907 4.5600577 0.15306865
24.408219 4.5600577 0.15306865
26.613617 4.5600577 0.15306865
28.818929 4.5600577 0.15306865
31.024327 4.5600577 0.15306865
33.229639 4.5600577 0.15306865
35.435037 4.5600577 0.15306865
37.640349 4.5600577 0.15306865
39.845747 4.5600577 0.15306865
42.047347 4.5600577 0.15306865
0.15306865 6.7654128 0.15306865
2.3547112 6.7654128 0.15306865
4.5600577 6.7654128 0.15306865
6.7654128 6.7654128 0.15306865
8.9707764 6.7654128 0.15306865
11.176089 6.7654128 0.15306865
13.381487 6.7654128 0.15306865
15.586799 6.7654128 0.15306865
17.792197 6.7654128 0.15306865
19.997509 6.7654128 0.15306865
22.202907 6.7654128 0.15306865
24.408219 6.7654128 0.15306865
26.613617 6.7654128 0.15306865
28.818929 6.7654128 0.15306865
31.024327 6.7654128 0.15306865
33.229639 6.7654128 0.15306865
35.435037 6.7654128 0.15306865
37.640349 6.7654128 0.15306865
39.845747 6.7654128 0.15306865
42.047347 6.7654128 0.15306865
0.15306865 8.9707764 0.15306865
2.3547112 8.9707764 0.15306865
4.5600577 8.9707764 0.15306865
6.7654128 8.9707764 0.15306865
8.9707764 8.9707764 0.15306865
11.176089 8.9707764 0.15306865
13.381487 8.9707764 0.15306865
15.586799 8.9707764 0.15306865
17.792197 8.9707764 0.15306865
19.997509 8.9707764 0.15306865
22.202907 8.9707764 0.15306865
24.408219 8.9707764 0.15306865
26.613617 8.9707764 0.15306865
28.818929 8.9707764 0.15306865
31.024327 8.9707764 0.15306865
33.229639 8.9707764 0.15306865
35.435037 8.9707764 0.15306865
37.640349 8.9707764 0.15306865
39.845747 8.9707764 0.15306865
42.047347 8.9707764 0.15306865
0.15306865 11.176089 0.15306865
2.3547112 11.176089 0.15306865
4.5600577 11.176089 0.15306865
6.7654128 11.176089 0.15306865
8.9707764 11.176089 0.15306865
11.176089 11.176089 0.15306865
13.381487 11.176089 0.15306865
15.586799 11.176089 0.15306865
17.792197 11.176089 0.15306865
19.997509 11.176089 0.15306865
22.202907 11.176089 0.15306865
24.408219 11.176089 0.15306865
26.613617 11.176089 0.15306865
28.818929 11.176089 0.15306865
31.024327 11.176089 0.15306865
33.229639 11.176089 0.15306865
35.435037 11.176089 0.15306865
37.640349 11.176089 0.15306865
39.845747 11.176089 0.15306865
42.047347 11.176089 0.15306865
0.15306865 13.381487 0.15306865
2.3547112 13.381487 0.15306865
4.5600577 13.381487 0.15306865
6.7654128 13.381487 0.15306865
8.9707764 13.381487 0.15306865
11.176089 13.381487 0.15306865
13.381487 13.381487 0.15306865
15.586799 13.381487 0.15306865
17.792197 13.381487 0.15306865
19.997509 13.381487 0.15306865
22.202907 13.381487 0.15306865
24.408219 13.381487 0.15306865
26.613617 13.381487 0.15306865
28.818929 13.381487 0.15306865
31.024327 13.381487 0.15306865
33.229639 13.381487 0.15306865
35.435037 13.381487 0.15306865
37.640349 13.381487 0.15306865
39.845747 13.381487 0.15306865
42.047347 13.381487 0.15306865
0.15306865 15.586799 0.15306865
2.3547112 15.586799 0.15306865
4.5600577 15.586799 0.15306865
6.7654128 15.586799 0.15306865
8.9707764 15.586799 0.15306865
11.176089 15.586799 0.15306865
13.381487 15.586799 0.15306865
15.586799 15.586799 0.15306865
17.792197 15.586799 0.15306865
19.997509 15.586799 0.15306865
22.202907 15.586799 0.15306865
24.408219 15.586799 0.15306865
26.613617 15.586799 0.15306865
28.818929 15.586799 0.15306865
31.024327 15.586799 0.15306865
33.229639 15.586799 0.15306865
35.435037 15.586799 0.15306865
37.640349 15.586799 0.15306865
39.845747 15.586799 0.15306865
42.047347 15.586799 0.15306865
0.15306865 17.792197 0.15306865
2.3547112 17.792197 0.15306865
4.5600577 17.792197 0.15306865
6.7654128 17.792197 0.15306865
8.9707764 17.792197 0.15306865
11.176089 17.792197 0.15306865
13.381487 17.792197 0.15306865
15.586799 17.792197 0.15306865
17.792197 17.792197 0.15306865
19.997509 17.792197 0.15306865
22.202907 17.792197 0.15306865
24.408219 17.792197 0.15306865
26.613617 17.792197 0.15306865
28.818929 17.792197 0.15306865
31.024327 17.792197 0.15306865
33.229639 17.792197 0.15306865
35.435037 17.792197 0.15306865
37.640349 17.792197 0.15306865
39.845747 17.792197 0.15306865
42.047347 17.792197 0.15306865
0.15306865 19.997509 0.15306865
2.3547112 19.997509 0.15306865
4.5600577 19.997509 0.15306865
6.7654128 19.997509 0.15306865
8.9707764 19.997509 0.15306865
11.176089 19.997509 0.15306865
13.381487 19.997509 0.15306865
15.586799 19.997509 0.15306865
17.792197 19.997509 0.15306865
19.997509 19.997509 0.15306865
22.202907 19.997509 0.15306865
24.408219 19.997509 0.15306865
26.613617 19.997509 0.15306865
28.818929 19.997509 0.15306865
31.024327 19.997509 0.15306865
33.229639 19.997509 0.15306865
35.435037 19.997509 0.15306865
37.640349 19.997509 0.15306865
39.845747 19.997509 0.15306865
42.047347 19.997509 0.15306865
0.15306865 22.202907 0.15306865
2.3547112 22.202907 0.15306865
4.5600577 22.202907 0.15306865
6.7654128 22.202907 0.15306865
8.9707764 22.202907 0.15306865
11.176089 22.202907 0.15306865
13.381487 22.202907 0.15306865
15.586799 22.202907 0.15306865
17.792197 22.202907 0.15306865
19.997509 22.202907 0.15306865
22.202907 22.202907 0.15306865
24.408219 22.202907 0.15306865
26.613617 22.202907 0.15306865
28.818929 22.202907 0.15306865
31.024327 22.202907 0.15306865
33.229639 22.202907 0.15306865
35.435037 22.202907 0.15306865
37.640349 22.202907 0.15306865
39.845747 22.202907 0.15306865
42.047347 22.202907 0.15306865
0.15306865 24.408219 0.15306865
2.3547112 24.408219 0.15306865
4.5600577 24.408219 0.15306865
6.7654128 24.408219 0.15306865
8.9707764 24.408219 0.15306865
11.176089 24.408219 0.15306865
13.381487 24.408219 0.15306865
15.586799 24.408219 0.15306865
17.792197 24.408219 0.15306865
19.997509 24.408219 0.15306865
22.202907 24.408219 0.15306865
24.408219 24.408219 0.15306865
26.613617 24.408219 0.15306865
28.818929 24.408219 0.15306865
31.024327 24.408219 0.15306865
33.229639 24.408219 0.15306865
35.435037 24.408219 0.15306865
37.640349 24.408219 0.15306865
39.845747 24.408219 0.15306865
42.047347 24.408219 0.15306865
0.15306865 26.613617 0.15306865
2.3547112 26.613617 0.15306865
4.5600577 26.613617 0.15306865
6.7654128 26.613617 0.15306865
8.9707764 26.613617 0.15306865
11.176089 26.613617 0.15306865
13.381487 26.613617 0.15306865
15.586799 26.613617 0.15306865
17.792197 26.613617 0.15306865
19.997509 26.613617 0.15306865
22.202907 26.613617 0.15306865
24.408219 26.613617 0.15306865
26.613617 26.613617 0.15306865
28.818929 26.613617 0.15306865
31.024327 26.613617 0.15306865
33.229639 26.613617 0.15306865
35.435037 26.613617 0.15306865
37.640349 26.613617 0.15306865
39.845747 26.613617 0.15306865
42.047347 26.613617 0.15306865
0.15306865 28.818929 0.15306865
2.3547112 28.818929 0.15306865
4.5600577 28.818929 0.15306865
6.7654128 28.818929 0.15306865
8.9707764 28.818929 0.15306865
11.176089 28.818929 0.15306865
13.381487 28.818929 0.15306865
15.586799 28.818929 0.15306865
17.792197 28.818929 0.15306865
19.997509 28.818929 0.15306865
22.202907 28.818929 0.15306865
24.408219 28.818929 0.15306865
26.613617 28.818929 0.15306865
28.818929 28.818929 0.15306865
31.024327 28.818929 0.15306865
33.229639 28.818929 0.15306865
35.435037 28.818929 0.15306865
37.640349 28.818929 0.15306865
39.845747 28.818929 0.15306865
42.047347 28.818929 0.15306865
0.15306865 31.024327 0.15306865
2.3547112 31.024327 0.15306865
4.5600577 31.024327 0.15306865
6.7654128 31.024327 0.15306865
8.9707764 31.024327 0.15306865
11.176089 31.024327 0.15306865
13.381487 31.024327 0.15306865
15.586799 31.024327 0.15306865
17.792197 31.024327 0.15306865
19.997509 31.024327 0.15306865
22.202907 31.024327 0.15306865
24.408219 31.024327 0.15306865
26.613617 31.024327 0.15306865
28.818929 31.024327 0.15306865
31.024327 31.024327 0.15306865
33.229639 31.024327 0.15306865
35.435037 31.024327 0.15306865
37.640349 31.024327 0.15306865
39.845747 31.024327 0.15306865
42.047347 31.024327 0.15306865
0.15306865 33.229639 0.15306865
2.3547112 33.229639 0.15306865
4.5600577 33.229639 0.15306865
6.7654128 33.229639 0.15306865
8.9707764 33.229639 0.15306865
11.176089 33.229639 0.15306865
13.381487 33.229639 0.15306865
15.586799 33.229639 0.15306865
17.792197 33.229639 0.15306865
19.997509 33.229639 0.15306865
22.202907 33.229639 0.15306865
24.408219 33.229639 0.15306865
26.613617 33.229639 0.15306865
28.818929 33.229639 0.15306865
31.024327 33.229639 0.15306865
33.229639 33.229639 0.15306865
35.435037 33.229639 0.15306865
37.640349 33.229639 0.15306865
[...]
POINT_DATA 3000
SCALARS m double
LOOKUP_TABLE default
1
1
1
1
1
1
1
1
1
1
1
1
1
1
1
1
1
1
1
1
1
1
1
1
1
1
1
1
1
1
1
1
1
1
1
1
1
1
1
1
1
1
1
1
1
1
1
1
1
1
1
1
1
1
1
1
1
1
1
1
1
1
1
1
1
1
1
1
1
1
1
1
1
1
1
1
1
1
1
1
1
1
1
1
1
1
1
1
1
1
1
1
1
1
1
1
1
1
1
1
1
1
1
1
1
1
1
1
1
1
1
1
1
1
1
1
1
1
1
1
1
1
1
1
1
1
1
1
1
1
1
1
1
1
1
1
1
1
1
1
1
1
1
1
1
1
1
1
1
1
1
1
1
1
1
1
1
1
1
1
1
1
1
1
1
1
1
1
1
1
1
1
1
1
1
1
1
1
1
1
1
1
1
1
1
1
1
1
1
1
1
1
1
1
1
1
1
1
1
1
1
1
1
1
1
1
1
1
1
1
1
1
1
1
1
1
1
1
1
1
1
1
1
1
1
1
1
1
1
1
1
1
1
1
1
1
1
1
1
1
1
1
1
1
1
1
1
1
1
1
1
1
1
1
1
1
1
1
1
1
1
1
1
1
1
1
1
1
1
1
1
1
1
1
1
1
1
1
1
1
1
1
1
1
1
1
1
1
1
1
1
1
1
1
1
1
1
1
1
1
1
1
1
1
1
1
1
1
1
1
1
1
1
1
1
1
1
1
1
1
1
1
1
1
1
1
1
1
1
1
1
1
1
1
1
1
1
1
1
1
1
1
1
1
1
1
1
1
1
1
1
1
1
1
1
1
1
1
1
1
1
1
1
1
1
1
1
1
1
1
1
1
1
1
1
1
1
1
1
1
1
1
1
1
1
1
1
1
1
1
1
1
1
1
1
1
1
1
1
1
1
1
1
1
1
1
1
1
1
1
1
1
1
1
1
1
1
1
1
1
1
1
1
1
1
1
1
1
1
1
1
1
1
1
1
1
1
1
1
1
1
1
1
1
1
1
1
1
1
1
1
1
1
1
1
1
1
1
1
1
1
1
1
1
1
1
1
1
1
1
1
1
1
1
1
1
1
1
1
1
1
1
1
1
1
1
1
1
1
1
1
1
1
1
1
1
1
1
1
1
1
1
1
1
1
1
1
1
1
1
1
1
1
1
1
1
1
1
1
1
1
1
1
1
1
1
1
1
1
1
1
1
1
1
1
1
1
1
1
1
1
1
1
1
1
1
1
1
1
1
1
1
1
1
1
1
1
1
1
1
1
1
1
1
1
1
1
1
1
1
1
1
1
1
1
1
1
1
1
1
1
1
1
1
1
1
1
1
1
1
1
1
1
1
1
1
1
1
1
1
1
1
1
1
1
1
1
1
1
1
1
1
1
1
1
1
1
1
1
1
1
1
1
1
1
1
1
1
1
1
1
1
1
1
1
1
1
1
1
1
1
1
1
1
1
1
1
1
1
1
1
1
1
1
1
1
1
1
1
1
1
1
1
1
1
1
1
1
1
1
1
1
1
1
1
1
1
1
1
1
1
1
1
1
1
1
1
1
1
1
1
1
1
1
1
1
1
1
1
1
1
1
1
1
1
1
1
1
1
1
1
1
1
1
1
1
1
1
1
1
1
1
1
1
1
1
1
1
1
1
1
1
1
1
1
1
1
1
1
1
1
1
1
1
1
1
1
1
1
1
1
1
1
1
1
1
1
1
1
1
1
1
1
1
1
1
1
1
1
1
1
1
1
1
1
1
1
1
1
1
1
1
1
1
1
1
1
1
1
1
1
1
1
1
1
1
1
1
1
1
1
1
1
1
1
1
1
1
1
1
1
1
1
1
1
1
1
1
1
1
1
1
1
1
1
1
1
1
1
1
1
1
1
1
1
1
1
1
1
1
1
1
1
1
1
1
1
1
1
1
1
1
1
1
1
1
1
1
1
1
1
1
1
1
1
1
1
1
1
1
1
1
1
1
1
1
1
1
1
1
1
1
1
1
1
1
1
1
1
1
1
1
1
1
1
1
1
1
1
1
1
1
1
1
1
1
1
1
1
1
1
1
1
1
1
1
1
1
1
1
1
1
1
1
1
1
1
1
1
1
1
1
1
1
1
1
1
1
1
1
1
1
1
1
1
1
1
1
1
1
1
1
1
1
1
1
1
1
1
1
1
1
1
1
1
1
1
1
1
1
1
1
1
1
1
1
1
1
1
1
1
1
1
1
1
1
1
1
1
1
1
1
1
1
1
1
1
1
1
1
1
1
1
1
1
1
1
1
1
1
1
1
1
1
1
1
1
1
1
1
1
1
1
1
1
1
1
1
1
1
1
1
1
1
1
1
1
1
1
1
1
1
1
1
1
1
1
1
1
1
1
1
1
1
1
1
1
1
1
1
1
1
1
1
1
1
1
1
1
1
1
1
1
1
1
1
1
1
1
1
1
1
1
1
1
1
1
1
1
1
1
1
1
1
1
1
1
1
1
1
1
1
1
1
1
1
1
1
1
1
1
1
1
1
1
1
1
1
1
1
1
1
1
1
1
1
1
1
1
1
1
1
1
1
1
1
1
1
1
1
1
1
1
1
1
1
1
1
1
1
1
1
1
1
1
1
1
1
1
1
1
1
1
1
1
1
1
1
1
1
1
1
1
1
1
1
1
1
1
1
1
1
1
1
1
1
1
1
1
1
1
1
1
1
1
1
1
1
1
1
1
1
1
1
1
1
1
1
1
1
1
1
1
1
1
1
1
1
1
1
1
1
1
1
1
1
1
1
1
1
1
1
1
1
1
1
1
1
1
1
1
1
1
1
1
1
1
1
1
1
1
1
1
1
1
1
1
1
1
1
1
1
1
1
1
1
1
1
1
1
1
1
1
1
1
1
1
1
1
1
1
1
1
1
1
1
1
1
1
1
1
1
1
1
1
1
1
1
1
1
1
1
1
1
1
1
1
1
1
1
1
1
1
1
1
1
1
1
1
1
1
1
1
1
1
1
1
1
1
1
1
1
1
1
1
1
1
1
1
1
1
1
1
1
1
1
1
1
1
1
1
1
1
1
1
1
1
1
1
1
1
1
1
1
1
1
1
1
1
1
1
1
1
1
1
1
1
1
1
1
1
1
1
1
1
1
1
1
1
1
1
1
1
1
1
1
1
1
1
1
1
1
1
1
1
1
1
1
1
1
1
1
1
1
1
1
1
1
1
1
1
1
1
1
1
1
1
1
1
1
1
1
1
1
1
1
1
1
1
1
1
1
1
1
1
1
1
1
1
1
1
1
1
1
1
1
1
1
1
1
1
1
1
1
1
1
1
1
1
1
1
1
1
1
1
1
1
1
1
1
1
1
1
1
1
1
1
1
1
1
1
1
1
1
1
1
1
1
1
1
1
1
1
1
1
1
1
1
1
1
1
1
1
1
1
1
1
1
1
1
1
1
1
1
1
1
1
1
1
1
1
1
1
1
1
1
1
1
1
1
1
1
1
1
1
1
1
1
1
1
1
1
1
1
1
1
1
1
1
1
1
1
1
1
1
1
1
1
1
1
1
1
1
1
1
1
1
1
1
1
1
1
1
1
1
1
1
1
1
1
1
1
1
1
1
1
1
1
1
1
1
1
1
1
1
1
1
1
1
1
1
1
1
1
1
1
1
1
1
1
1
1
1
1
1
1
1
1
1
1
1
1
1
1
1
1
1
1
1
1
1
1
1
1
1
1
1
1
1
1
1
1
1
1
1
1
1
1
1
1
1
1
1
1
1
1
1
1
1
1
1
1
1
1
1
1
1
1
1
1
1
1
1
1
1
1
1
1
1
1
1
1
1
1
1
1
1
1
1
1
1
1
1
1
1
1
1
1
1
1
1
1
1
1
1
1
1
1
1
1
1
1
1
1
1
1
1
1
1
1
1
1
1
1
1
1
1
1
1
1
1
1
1
1
1
1
1
1
1
1
1
1
1
1
1
1
1
1
1
1
1
1
1
1
1
1
1
1
1
1
1
1
1
1
1
1
1
1
1
1
1
1
1
1
1
1
1
1
1
1
1
1
1
1
1
1
1
1
1
1
1
1
1
1
1
1
1
1
1
1
1
1
1
1
1
1
1
1
1
1
1
1
1
1
1
1
1
1
1
1
1
1
1
1
1
1
1
1
1
1
1
1
1
1
1
1
1
1
1
1
1
1
1
1
1
1
1
1
1
1
1
1
1
1
1
1
1
1
1
1
1
1
1
1
1
1
1
1
1
1
1
1
1
1
1
1
1
1
1
1
1
1
1
1
1
1
1
1
1
1
1
1
1
1
1
1
1
1
1
1
1
1
1
1
1
1
1
1
1
1
1
1
1
1
1
1
1
1
1
1
1
1
1
1
1
1
1
1
1
1
1
1
1
1
1
1
1
1
1
1
1
1
1
1
1
1
1
1
1
1
1
1
1
1
1
1
1
1
1
1
1
1
1
1
1
1
1
1
1
1
1
1
1
1
1
1
1
1
1
1
1
1
1
1
1
1
1
1
1
1
1
1
1
1
1
1
1
1
1
1
1
1
1
1
1
1
1
1
1
1
1
1
1
1
1
1
1
1
1
1
1
1
1
1
1
1
1
1
1
1
1
1
1
1
1
1
1
1
1
1
1
1
1
1
1
1
1
1
1
1
1
1
1
1
1
1
1
1
1
1
1
1
1
1
1
1
1
1
1
1
1
1
1
1
1
1
1
1
1
1
1
1
1
1
1
1
1
1
1
1
1
1
1
1
1
1
1
1
1
1
1
1
1
1
1
1
1
1
1
1
1
1
1
1
1
1
1
1
1
1
1
1
1
1
1
1
1
1
1
1
1
1
1
1
1
1
1
1
1
1
1
1
1
1
1
1
1
1
1
1
1
1
1
1
1
1
1
1
1
1
1
1
1
1
1
1
1
1
1
1
1
1
1
1
1
1
1
1
1
1
1
1
1
1
1
1
1
1
1
1
1
1
1
1
1
1
1
1
1
1
1
1
1
1
1
1
1
1
1
1
1
1
1
1
1
1
1
1
1
1
1
1
1
1
1
1
1
1
1
1
1
1
1
1
1
1
1
1
1
1
1
1
1
1
1
1
1
1
1
1
1
1
1
1
1
1
1
1
1
1
1
1
1
1
1
1
1
1
1
1
1
1
1
1
1
1
1
1
1
1
1
1
1
1
1
1
1
1
1
1
1
1
1
1
1
1
1
1
1
1
1
1
1
1
1
1
1
1
1
1
1
1
1
1
1
1
1
1
1
1
1
1
1
1
1
1
1
1
1
1
1
1
1
1
1
1
1
1
1
1
1
1
1
1
1
1
1
1
1
1
1
1
1
1
1
1
1
1
1
1
1
1
1
1
1
1
1
1
1
1
1
1
1
1
1
1
1
1
1
1
1
1
1
1
1
1
1
1
1
1
1
1
1
1
1
1
1
1
1
1
1
1
1
1
1
1
1
1
1
1
1
1
1
1
1
1
1
1
1
1
1
1
1
1
1
1
1
1
1
1
1
1
1
1
1
1
1
1
1
1
1
1
1
1
1
1
1
1
1
1
1
1
1
1
1
1
1
1
1
1
1
1
1
1
1
1
1
1
1
1
1
1
1
1
1
1
1
1
1
1
1
1
1
1
1
1
1
1
1
1
1
1
1
1
1
1
1
1
1
1
1
1
1
1
1
1
1
1
1
1
1
1
1
1
1
1
1
1
1
1
1
1
1
1
1
1
1
1
1
1
1
1
1
1
1
1
1
1
1
1
1
1
1
1
1
1
1
1
1
1
1
1
1
1
1
1
1
1
1
1
1
1
1
1
1
1
1
1
1
1
1
1
1
1
1
1
1
1
1
1
1
1
1
1
1
1
1
1
1
1
1
1
1
1
1
1
1
1
1
1
1
1
1
1
1
1
1
1
1
1
1
1
1
1
1
1
1
1
1
1
1
1
1
1
1
1
1
1
1
1
1
1
1
1
1
1
1
1
1
1
1
1
1
1
1
1
1
1
1
1
1
1
1
1
1
1
1
1
1
1
1
1
1
1
1
1
1
1
1
1
1
1
1
1
1
1
1
1
1
1
1
1
1
1
1
1
1
1
1
1
1
1
1
1
1
1
1
1
1
1
1
1
1
1
1
1
1
1
1
1
1
1
1
1
1
1
1
1
1
1
1
1
1
1
1
1
1
1
1
1
1
1
1
1
1
1
1
1
1
1
1
1
1
1
1
1
1
1
1
1
1
1
1
1
1
1
1
1
1
1
1
1
1
1
1
1
1
1
1
1
1
1
1
1
1
1
1
1
1
1
1
1
1
1
1
1
1
1
1
1
1
1
1
1
1
1
1
1
1
1
1
1
1
1
1
1
1
1
1
1
1
1
1
1
1
1
1
1
1
1
1
1
1
1
1
1
1
1
1
1
1
1
1
1
1
1
1
1
1
1
1
1
1
1
1
1
1
1
1
1
1
1
1
1
1
1
1
1
1
1
1
1
1
1
1
1
1
1
1
1
1
1
1
1
1
1
1
1
1
1
1
1
1
1
1
1
1
1
1
1
1
1
1
1
1
1
1
1
1
1
1
1
1
1
1
1
1
1
1
1
1
1
1
1
1
1
1
1
1
1
1
1
1
1
1
1
1
1
1
1
1
1
1
1
1
1
1
1
1
1
1
1
1
1
1
1
1
1
1
1
1
1
1
1
1
1
1
1
1
1
1
1
1
1
1
1
1
1
1
1
1
1
1
1
1
1
1
1
1
1
1
1
1
1
1
1
1
1
1
1
VECTORS v double
-1.2487894 -1.2487894 -1.2487894
-2.5918239 -1.2487894 -1.2487894
-3.928798 -1.2487894 -1.2487894
-5.2657774 -1.2487894 -1.2487894
-6.6027619 -1.2487894 -1.2487894
-7.9397153 -1.2487894 -1.2487894
-9.2767206 -1.2487894 -1.2487894
-10.613674 -1.2487894 -1.2487894
-11.950679 -1.2487894 -1.2487894
-13.287633 -1.2487894 -1.2487894
-14.624638 -1.2487894 -1.2487894
-15.961591 -1.2487894 -1.2487894
-17.298597 -1.2487894 -1.2487894
-18.63555 -1.2487894 -1.2487894
-19.972555 -1.2487894 -1.2487894
-21.309509 -1.2487894 -1.2487894
-22.646514 -1.2487894 -1.2487894
-23.983467 -1.2487894 -1.2487894
-25.320473 -1.2487894 -1.2487894
-26.663481 -1.2487894 -1.2487894
-1.2487894 -2.5918239 -1.2487894
-2.5918239 -2.5918239 -1.2487894
-3.928798 -2.5918239 -1.2487894
-5.2657774 -2.5918239 -1.2487894
-6.6027619 -2.5918239 -1.2487894
-7.9397153 -2.5918239 -1.2487894
-9.2767206 -2.5918239 -1.2487894
-10.613674 -2.5918239 -1.2487894
-11.950679 -2.5918239 -1.2487894
-13.287633 -2.5918239 -1.2487894
-14.624638 -2.5918239 -1.2487894
-15.961591 -2.5918239 -1.2487894
-17.298597 -2.5918239 -1.2487894
-18.63555 -2.5918239 -1.2487894
-19.972555 -2.5918239 -1.2487894
-21.309509 -2.5918239 -1.2487894
-22.646514 -2.5918239 -1.2487894
-23.983467 -2.5918239 -1.2487894
-25.320473 -2.5918239 -1.2487894
-26.663481 -2.5918239 -1.2487894
-1.2487894 -3.928798 -1.2487894
-2.5918239 -3.928798 -1.2487894
-3.928798 -3.928798 -1.2487894
-5.2657774 -3.928798 -1.2487894
-6.6027619 -3.928798 -1.2487894
-7.9397153 -3.928798 -1.2487894
-9.2767206 -3.928798 -1.2487894
-10.613674 -3.928798 -1.2487894
-11.950679 -3.928798 -1.2487894
-13.287633 -3.928798 -1.2487894
-14.624638 -3.928798 -1.2487894
-15.961591 -3.928798 -1.2487894
-17.298597 -3.928798 -1.2487894
-18.63555 -3.928798 -1.2487894
-19.972555 -3.928798 -1.2487894
-21.309509 -3.928798 -1.2487894
-22.646514 -3.928798 -1.2487894
-23.983467 -3.928798 -1.2487894
-25.320473 -3.928798 -1.2487894
-26.663481 -3.928798 -1.2487894
-1.2487894 -5.2657774 -1.2487894
-2.5918239 -5.2657774 -1.2487894
-3.928798 -5.2657774 -1.2487894
-5.2657774 -5.2657774 -1.2487894
-6.6027619 -5.2657774 -1.2487894
-7.9397153 -5.2657774 -1.2487894
-9.2767206 -5.2657774 -1.2487894
-10.613674 -5.2657774 -1.2487894
-11.950679 -5.2657774 -1.2487894
-13.287633 -5.2657774 -1.2487894
-14.624638 -5.2657774 -1.2487894
-15.961591 -5.2657774 -1.2487894
-17.298597 -5.2657774 -1.2487894
-18.63555 -5.2657774 -1.2487894
-19.972555 -5.2657774 -1.2487894
-21.309509 -5.2657774 -1.2487894
-22.646514 -5.2657774 -1.2487894
-23.983467 -5.2657774 -1.2487894
-25.320473 -5.2657774 -1.2487894
-26.663481 -5.2657774 -1.2487894
-1.2487894 -6.6027619 -1.2487894
-2.5918239 -6.6027619 -1.2487894
-3.928798 -6.6027619 -1.2487894
-5.2657774 -6.6027619 -1.2487894
-6.6027619 -6.6027619 -1.2487894
-7.9397153 -6.6027619 -1.2487894
-9.2767206 -6.6027619 -1.2487894
-10.613674 -6.6027619 -1.2487894
-11.950679 -6.6027619 -1.2487894
-13.287633 -6.6027619 -1.2487894
-14.624638 -6.6027619 -1.2487894
-15.961591 -6.6027619 -1.2487894
-17.298597 -6.6027619 -1.2487894
-18.63555 -6.6027619 -1.2487894
-19.972555 -6.6027619 -1.2487894
-21.309509 -6.6027619 -1.2487894
-22.646514 -6.6027619 -1.2487894
-23.983467 -6.6027619 -1.2487894
-25.320473 -6.6027619 -1.2487894
-26.663481 -6.6027619 -1.2487894
-1.2487894 -7.9397153 -1.2487894
-2.5918239 -7.9397153 -1.2487894
-3.928798 -7.9397153 -1.2487894
-5.2657774 -7.9397153 -1.2487894
-6.6027619 -7.9397153 -1.2487894
-7.9397153 -7.9397153 -1.2487894
-9.2767206 -7.9397153 -1.2487894
-10.613674 -7.9397153 -1.2487894
-11.950679 -7.9397153 -1.2487894
-13.287633 -7.9397153 -1.2487894
-14.624638 -7.9397153 -1.2487894
-15.961591 -7.9397153 -1.2487894
-17.298597 -7.9397153 -1.2487894
-18.63555 -7.9397153 -1.2487894
-19.972555 -7.9397153 -1.2487894
-21.309509 -7.9397153 -1.2487894
-22.646514 -7.9397153 -1.2487894
-23.983467 -7.9397153 -1.2487894
-25.320473 -7.9397153 -1.2487894
-26.663481 -7.9397153 -1.2487894
-1.2487894 -9.2767206 -1.2487894
-2.5918239 -9.2767206 -1.2487894
-3.928798 -9.2767206 -1.2487894
-5.2657774 -9.2767206 -1.2487894
-6.6027619 -9.2767206 -1.2487894
-7.9397153 -9.2767206 -1.2487894
-9.2767206 -9.2767206 -1.2487894
-10.613674 -9.2767206 -1.2487894
-11.950679 -9.2767206 -1.2487894
-13.287633 -9.2767206 -1.2487894
-14.624638 -9.2767206 -1.2487894
-15.961591 -9.2767206 -1.2487894
-17.298597 -9.2767206 -1.2487894
-18.63555 -9.2767206 -1.2487894
-19.972555 -9.2767206 -1.2487894
-21.309509 -9.2767206 -1.2487894
-22.646514 -9.2767206 -1.2487894
-23.983467 -9.2767206 -1.2487894
-25.320473 -9.2767206 -1.2487894
-26.663481 -9.2767206 -1.2487894
-1.2487894 -10.613674 -1.2487894
-2.5918239 -10.613674 -1.2487894
-3.928798 -10.613674 -1.2487894
-5.2657774 -10.613674 -1.2487894
-6.6027619 -10.613674 -1.2487894
-7.9397153 -10.613674 -1.2487894
-9.2767206 -10.613674 -1.2487894
-10.613674 -10.613674 -1.2487894
-11.950679 -10.613674 -1.2487894
-13.287633 -10.613674 -1.2487894
-14.624638 -10.613674 -1.2487894
-15.961591 -10.613674 -1.2487894
-17.298597 -10.613674 -1.2487894
-18.63555 -10.613674 -1.2487894
-19.972555 -10.613674 -1.2487894
-21.309509 -10.613674 -1.2487894
-22.646514 -10.613674 -1.2487894
-23.983467 -10.613674 -1.2487894
-25.320473 -10.613674 -1.2487894
-26.663481 -10.613674 -1.2487894
-1.2487894 -11.950679 -1.2487894
-2.5918239 -11.950679 -1.2487894
-3.928798 -11.950679 -1.2487894
-5.2657774 -11.950679 -1.2487894
-6.6027619 -11.950679 -1.2487894
-7.9397153 -11.950679 -1.2487894
-9.2767206 -11.950679 -1.2487894
-10.613674 -11.950679 -1.2487894
-11.950679 -11.950679 -1.2487894
-13.287633 -11.950679 -1.2487894
-14.624638 -11.950679 -1.2487894
-15.961591 -11.950679 -1.2487894
-17.298597 -11.950679 -1.2487894
-18.63555 -11.950679 -1.2487894
-19.972555 -11.950679 -1.2487894
-21.309509 -11.950679 -1.2487894
-22.646514 -11.950679 -1.2487894
-23.983467 -11.950679 -1.2487894
-25.320473 -11.950679 -1.2487894
-26.663481 -11.950679 -1.2487894
-1.2487894 -13.287633 -1.2487894
-2.5918239 -13.287633 -1.2487894
-3.928798 -13.287633 -1.2487894
-5.2657774 -13.287633 -1.2487894
-6.6027619 -13.287633 -1.2487894
-7.9397153 -13.287633 -1.2487894
-9.2767206 -13.287633 -1.2487894
-10.613674 -13.287633 -1.2487894
-11.950679 -13.287633 -1.2487894
-13.287633 -13.287633 -1.2487894
-14.624638 -13.287633 -1.2487894
-15.961591 -13.287633 -1.2487894
-17.298597 -13.287633 -1.2487894
-18.63555 -13.287633 -1.2487894
-19.972555 -13.287633 -1.2487894
-21.309509 -13.287633 -1.2487894
-22.646514 -13.287633 -1.2487894
-23.983467 -13.287633 -1.2487894
-25.320473 -13.287633 -1.2487894
-26.663481 -13.287633 -1.2487894
-1.2487894 -14.624638 -1.2487894
-2.5918239 -14.624638 -1.2487894
-3.928798 -14.624638 -1.2487894
-5.2657774 -14.624638 -1.2487894
-6.6027619 -14.624638 -1.2487894
-7.9397153 -14.624638 -1.2487894
-9.2767206 -14.624638 -1.2487894
-10.613674 -14.624638 -1.2487894
-11.950679 -14.624638 -1.2487894
-13.287633 -14.624638 -1.2487894
-14.624638 -14.624638 -1.2487894
-15.961591 -14.624638 -1.2487894
-17.298597 -14.624638 -1.2487894
-18.63555 -14.624638 -1.2487894
-19.972555 -14.624638 -1.2487894
-21.309509 -14.624638 -1.2487894
-22.646514 -14.624638 -1.2487894
-23.983467 -14.624638 -1.2487894
-25.320473 -14.624638 -1.2487894
-26.663481 -14.624638 -1.2487894
-1.2487894 -15.961591 -1.2487894
-2.5918239 -15.961591 -1.2487894
-3.928798 -15.961591 -1.2487894
-5.2657774 -15.961591 -1.2487894
-6.6027619 -15.961591 -1.2487894
-7.9397153 -15.961591 -1.2487894
-9.2767206 -15.961591 -1.2487894
-10.613674 -15.961591 -1.2487894
-11.950679 -15.961591 -1.2487894
-13.287633 -15.961591 -1.2487894
-14.624638 -15.961591 -1.2487894
-15.961591 -15.961591 -1.2487894
-17.298597 -15.961591 -1.2487894
-18.63555 -15.961591 -1.2487894
-19.972555 -15.961591 -1.2487894
-21.309509 -15.961591 -1.2487894
-22.646514 -15.961591 -1.2487894
-23.983467 -15.961591 -1.2487894
-25.320473 -15.961591 -1.2487894
-26.663481 -15.961591 -1.2487894
-1.2487894 -17.298597 -1.2487894
-2.5918239 -17.298597 -1.2487894
-3.928798 -17.298597 -1.2487894
-5.2657774 -17.298597 -1.2487894
-6.6027619 -17.298597 -1.2487894
-7.9397153 -17.298597 -1.2487894
-9.2767206 -17.298597 -1.2487894
-10.613674 -17.298597 -1.2487894
-11.950679 -17.298597 -1.2487894
-13.287633 -17.298597 -1.2487894
-14.624638 -17.298597 -1.2487894
-15.961591 -17.298597 -1.2487894
-17.298597 -17.298597 -1.2487894
-18.63555 -17.298597 -1.2487894
-19.972555 -17.298597 -1.2487894
-21.309509 -17.298597 -1.2487894
-22.646514 -17.298597 -1.2487894
-23.983467 -17.298597 -1.2487894
-25.320473 -17.298597 -1.2487894
-26.663481 -17.298597 -1.2487894
-1.2487894 -18.63555 -1.2487894
-2.5918239 -18.63555 -1.2487894
-3.928798 -18.63555 -1.2487894
-5.2657774 -18.63555 -1.2487894
-6.6027619 -18.63555 -1.2487894
-7.9397153 -18.63555 -1.2487894
-9.2767206 -18.63555 -1.2487894
-10.613674 -18.63555 -1.2487894
-11.950679 -18.63555 -1.2487894
-13.287633 -18.63555 -1.2487894
-14.624638 -18.63555 -1.2487894
-15.961591 -18.63555 -1.2487894
-17.298597 -18.63555 -1.2487894
-18.63555 -18.63555 -1.2487894
-19.972555 -18.63555 -1.2487894
-21.309509 -18.63555 -1.2487894
-22.646514 -18.63555 -1.2487894
-23.983467 -18.63555 -1.2487894
-25.320473 -18.63555 -1.2487894
-26.663481 -18.63555 -1.2487894
-1.2487894 -19.972555 -1.2487894
-2.5918239 -19.972555 -1.2487894
-3.928798 -19.972555 -1.2487894
-5.2657774 -19.972555 -1.2487894
-6.6027619 -19.972555 -1.2487894
-7.9397153 -19.972555 -1.2487894
-9.2767206 -19.972555 -1.2487894
-10.613674 -19.972555 -1.2487894
-11.950679 -19.972555 -1.2487894
-13.287633 -19.972555 -1.2487894
-14.624638 -19.972555 -1.2487894
-15.961591 -19.972555 -1.2487894
-17.298597 -19.972555 -1.2487894
-18.63555 -19.972555 -1.2487894
-19.972555 -19.972555 -1.2487894
-21.309509 -19.972555 -1.2487894
-22.646514 -19.972555 -1.2487894
-23.983467 -19.972555 -1.2487894
-25.320473 -19.972555 -1.2487894
-26.663481 -19.972555 -1.2487894
-1.2487894 -21.309509 -1.2487894
-2.5918239 -21.309509 -1.2487894
-3.928798 -21.309509 -1.2487894
-5.2657774 -21.309509 -1.2487894
-6.6027619 -21.309509 -1.2487894
-7.9397153 -21.309509 -1.2487894
-9.2767206 -21.309509 -1.2487894
-10.613674 -21.309509 -1.2487894
-11.950679 -21.309509 -1.2487894
-13.287633 -21.309509 -1.2487894
-14.624638 -21.309509 -1.2487894
-15.961591 -21.309509 -1.2487894
-17.298597 -21.309509 -1.2487894
-18.63555 -21.309509 -1.2487894
-19.972555 -21.309509 -1.2487894
-21.309509 -21.309509 -1.2487894
-22.646514 -21.309509 -1.2487894
-23.983467 -21.309509 -1.2487894
-25.320473 -21.309509 -1.2487894
-26.663481 -21.309509 -1.2487894
-1.2487894 -22.646514 -1.2487894
-2.5918239 -22.646514 -1.2487894
-3.928798 -22.646514 -1.2487894
-5.2657774 -22.646514 -1.2487894
-6.6027619 -22.646514 -1.2487894
-7.9397153 -22.646514 -1.2487894
-9.2767206 -22.646514 -1.2487894
-10.613674 -22.646514 -1.2487894
-11.950679 -22.646514 -1.2487894
-13.287633 -22.646514 -1.2487894
-14.624638 -22.646514 -1.2487894
-15.961591 -22.646514 -1.2487894
-17.298597 -22.646514 -1.2487894
-18.63555 -22.646514 -1.2487894
-19.972555 -22.646514 -1.2487894
-21.309509 -22.646514 -1.2487894
-22.646514 -22.646514 -1.2487894
-23.983467 -22.646514 -1.2487894
-25.320473 -22.646514 -1.2487894
-26.663481 -22.646514 -1.2487894
-1.2487894 -23.983467 -1.2487894
-2.5918239 -23.983467 -1.2487894
-3.928798 -23.983467 -1.2487894
-5.2657774 -23.983467 -1.2487894
-6.6027619 -23.983467 -1.2487894
-7.9397153 -23.983467 -1.2487894
-9.2767206 -23.983467 -1.2487894
-10.613674 -23.983467 -1.2487894
-11.950679 -23.983467 -1.2487894
-13.287633 -23.983467 -1.2487894
-14.624638 -23.983467 -1.2487894
-15.961591 -23.983467 -1.2487894
-17.298597 -23.983467 -1.2487894
-18.63555 -23.983467 -1.2487894
-19.972555 -23.983467 -1.2487894
-21.309509 -23.983467 -1.2487894
-22.646514 -23.983467 -1.2487894
-23.983467 -23.983467 -1.2487894
-25.320473 -23.983467 -1.2487894
-26.663481 -23.983467 -1.2487894
-1.2487894 -25.320473 -1.2487894
-2.5918239 -25.320473 -1.2487894
-3.928798 -25.320473 -1.2487894
-5.2657774 -25.320473 -1.2487894
-6.6027619 -25.320473 -1.2487894
-7.9397153 -25.320473 -1.2487894
-9.2767206 -25.320473 -1.2487894
-10.613674 -25.320473 -1.2487894
-11.950679 -25.320473 -1.2487894
-13.287633 -25.320473 -1.2487894
-14.624638 -25.320473 -1.2487894
-15.961591 -25.320473 -1.2487894
-17.298597 -25.320473 -1.2487894
-18.63555 -25.320473 -1.2487894
-19.972555 -25.320473 -1.2487894
-21.309509 -25.320473 -1.2487894
-22.646514 -25.320473 -1.2487894
-23.983467 -25.320473 -1.2487894
-25.320473 -25.320473 -1.2487894
-26.663481 -25.320473 -1.2487894
-1.2487894 -26.663481 -1.2487894
-2.5918239 -26.663481 -1.2487894
-3.928798 -26.663481 -1.2487894
-5.2657774 -26.663481 -1.2487894
-6.6027619 -26.663481 -1.2487894
-7.9397153 -26.663481 -1.2487894
-9.2767206 -26.663481 -1.2487894
-10.613674 -26.663481 -1.2487894
-11.950679 -26.663481 -1.2487894
-13.287633 -26.663481 -1.2487894
-14.624638 -26.663481 -1.2487894
-15.961591 -26.663481 -1.2487894
-17.298597 -26.663481 -1.2487894
-18.63555 -26.663481 -1.2487894
-19.972555 -26.663481 -1.2487894
-21.309509 -26.663481 -1.2487894
-22.646514 -26.663481 -1.2487894
-23.983467 -26.663481 -1.2487894
-25.320473 -26.663481 -1.2487894
-26.663481 -26.663481 -1.2487894
-1.2487894 -1.2487894 -2.5918239
-2.5918239 -1.2487894 -2.5918239
-3.928798 -1.2487894 -2.5918239
-5.2657774 -1.2487894 -2.5918239
-6.6027619 -1.2487894 -2.5918239
-7.9397153 -1.2487894 -2.5918239
-9.2767206 -1.2487894 -2.5918239
-10.613674 -1.2487894 -2.5918239
-11.950679 -1.2487894 -2.5918239
-13.287633 -1.2487894 -2.5918239
-14.624638 -1.2487894 -2.5918239
-15.961591 -1.2487894 -2.5918239
-17.298597 -1.2487894 -2.5918239
-18.63555 -1.2487894 -2.5918239
-19.972555 -1.2487894 -2.5918239
-21.309509 -1.2487894 -2.5918239
-22.646514 -1.2487894 -2.5918239
-23.983467 -1.2487894 -2.5918239
-25.320473 -1.2487894 -2.5918239
-26.663481 -1.2487894 -2.5918239
-1.2487894 -2.5918239 -2.5918239
-2.5918239 -2.5918239 -2.5918239
-3.928798 -2.5918239 -2.5918239
-5.2657774 -2.5918239 -2.5918239