# vtk DataFile Version 4.0
hesp visualization file
ASCII
DATASET UNSTRUCTURED_GRID
POINTS 3000 double
0.27762826 0.27762826 0.27762826
2.6134027 0.27762826 0.27762826
4.9521934 0.27762826 0.27762826
7.2909932 0.27762826 0.27762826
9.629802 0.27762826 0.27762826
11.968556 0.27762826 0.27762826
14.307402 0.27762826 0.27762826
16.646156 0.27762826 0.27762826
18.985001 0.27762826 0.27762826
21.323755 0.27762826 0.27762826
23.662601 0.27762826 0.27762826
26.001355 0.27762826 0.27762826
28.3402 0.27762826 0.27762826
30.678954 0.27762826 0.27762826
33.0178 0.27762826 0.27762826
35.356554 0.27762826 0.27762826
37.695399 0.27762826 0.27762826
40.034154 0.27762826 0.27762826
42.372999 0.27762826 0.27762826
44.708728 0.27762826 0.27762826
0.27762826 2.6134027 0.27762826
2.6134027 2.6134027 0.27762826
4.9521934 2.6134027 0.27762826
7.2909932 2.6134027 0.27762826
9.629802 2.6134027 0.27762826
11.968556 2.6134027 0.27762826
14.307402 2.6134027 0.27762826
16.646156 2.6134027 0.27762826
18.985001 2.6134027 0.27762826
21.323755 2.6134027 0.27762826
23.662601 2.6134027 0.27762826
26.001355 2.6134027 0.27762826
28.3402 2.6134027 0.27762826
30.678954 2.6134027 0.27762826
33.0178 2.6134027 0.27762826
35.356554 2.6134027 0.27762826
37.695399 2.6134027 0.27762826
40.034154 2.6134027 0.27762826
42.372999 2.6134027 0.27762826
44.708728 2.6134027 0.27762826
0.27762826 4.9521934 0.27762826
2.6134027 4.9521934 0.27762826
4.9521934 4.9521934 0.27762826
7.2909932 4.9521934 0.27762826
9.629802 4.9521934 0.27762826
11.968556 4.9521934 0.27762826
14.307402 4.9521934 0.27762826
16.646156 4.9521934 0.27762826
18.985001 4.9521934 0.27762826
21.323755 4.9521934 0.27762826
23.662601 4.9521934 0.27762826
26.001355 4.9521934 0.27762826
28.3402 4.9521934 0.27762826
30.678954 4.9521934 0.27762826
33.0178 4.9521934 0.27762826
35.356554 4.9521934 0.27762826
37.695399 4.9521934 0.27762826
40.034154 4.9521934 0.27762826
42.372999 4.9521934 0.27762826
44.708728 4.9521934 0.27762826
0.27762826 7.2909932 0.27762826
2.6134027 7.2909932 0.27762826
4.9521934 7.2909932 0.27762826
7.2909932 7.2909932 0.27762826
9.629802 7.2909932 0.27762826
11.968556 7.2909932 0.27762826
14.307402 7.2909932 0.27762826
16.646156 7.2909932 0.27762826
18.985001 7.2909932 0.27762826
21.323755 7.2909932 0.27762826
23.662601 7.2909932 0.27762826
26.001355 7.2909932 0.27762826
28.3402 7.2909932 0.27762826
30.678954 7.2909932 0.27762826
33.0178 7.2909932 0.27762826
35.356554 7.2909932 0.27762826
37.695399 7.2909932 0.27762826
40.034154 7.2909932 0.27762826
42.372999 7.2909932 0.27762826
44.708728 7.2909932 0.27762826
0.27762826 9.629802 0.27762826
2.6134027 9.629802 0.27762826
4.9521934 9.629802 0.27762826
7.2909932 9.629802 0.27762826
9.629802 9.629802 0.27762826
11.968556 9.629802 0.27762826
14.307402 9.629802 0.27762826
16.646156 9.629802 0.27762826
18.985001 9.629802 0.27762826
21.323755 9.629802 0.27762826
23.662601 9.629802 0.27762826
26.001355 9.629802 0.27762826
28.3402 9.629802 0.27762826
30.678954 9.629802 0.27762826
33.0178 9.629802 0.27762826
35.356554 9.629802 0.27762826
37.695399 9.629802 0.27762826
40.034154 9.629802 0.27762826
42.372999 9.629802 0.27762826
44.708728 9.629802 0.27762826
0.27762826 11.968556 0.27762826
2.6134027 11.968556 0.27762826
4.9521934 11.968556 0.27762826
7.2909932 11.968556 0.27762826
9.629802 11.968556 0.27762826
11.968556 11.968556 0.27762826
14.307402 11.968556 0.27762826
16.646156 11.968556 0.27762826
18.985001 11.968556 0.27762826
21.323755 11.968556 0.27762826
23.662601 11.968556 0.27762826
26.001355 11.968556 0.27762826
28.3402 11.968556 0.27762826
30.678954 11.968556 0.27762826
33.0178 11.968556 0.27762826
35.356554 11.968556 0.27762826
37.695399 11.968556 0.27762826
40.034154 11.968556 0.27762826
42.372999 11.968556 0.27762826
44.708728 11.968556 0.27762826
0.27762826 14.307402 0.27762826
2.6134027 14.307402 0.27762826
4.9521934 14.307402 0.27762826
7.2909932 14.307402 0.27762826
9.629802 14.307402 0.27762826
11.968556 14.307402 0.27762826
14.307402 14.307402 0.27762826
16.646156 14.307402 0.27762826
18.985001 14.307402 0.27762826
21.323755 14.307402 0.27762826
23.662601 14.307402 0.27762826
26.001355 14.307402 0.27762826
28.3402 14.307402 0.27762826
30.678954 14.307402 0.27762826
33.0178 14.307402 0.27762826
35.356554 14.307402 0.27762826
37.695399 14.307402 0.27762826
40.034154 14.307402 0.27762826
42.372999 14.307402 0.27762826
44.708728 14.307402 0.27762826
0.27762826 16.646156 0.27762826
2.6134027 16.646156 0.27762826
4.9521934 16.646156 0.27762826
7.2909932 16.646156 0.27762826
9.629802 16.646156 0.27762826
11.968556 16.646156 0.27762826
14.307402 16.646156 0.27762826
16.646156 16.646156 0.27762826
18.985001 16.646156 0.27762826
21.323755 16.646156 0.27762826
23.662601 16.646156 0.27762826
26.001355 16.646156 0.27762826
28.3402 16.646156 0.27762826
30.678954 16.646156 0.27762826
33.0178 16.646156 0.27762826
35.356554 16.646156 0.27762826
37.695399 16.646156 0.27762826
40.034154 16.646156 0.27762826
42.372999 16.646156 0.27762826
44.708728 16.646156 0.27762826
0.27762826 18.985001 0.27762826
2.6134027 18.985001 0.27762826
4.9521934 18.985001 0.27762826
7.2909932 18.985001 0.27762826
9.629802 18.985001 0.27762826
11.968556 18.985001 0.27762826
14.307402 18.985001 0.27762826
16.646156 18.985001 0.27762826
18.985001 18.985001 0.27762826
21.323755 18.985001 0.27762826
23.662601 18.985001 0.27762826
26.001355 18.985001 0.27762826
28.3402 18.985001 0.27762826
30.678954 18.985001 0.27762826
33.0178 18.985001 0.27762826
35.356554 18.985001 0.27762826
37.695399 18.985001 0.27762826
40.034154 18.985001 0.27762826
42.372999 18.985001 0.27762826
44.708728 18.985001 0.27762826
0.27762826 21.323755 0.27762826
2.6134027 21.323755 0.27762826
4.9521934 21.323755 0.27762826
7.2909932 21.323755 0.27762826
9.629802 21.323755 0.27762826
11.968556 21.323755 0.27762826
14.307402 21.323755 0.27762826
16.646156 21.323755 0.27762826
18.985001 21.323755 0.27762826
21.323755 21.323755 0.27762826
23.662601 21.323755 0.27762826
26.001355 21.323755 0.27762826
28.3402 21.323755 0.27762826
30.678954 21.323755 0.27762826
33.0178 21.323755 0.27762826
35.356554 21.323755 0.27762826
37.695399 21.323755 0.27762826
40.034154 21.323755 0.27762826
42.372999 21.323755 0.27762826
44.708728 21.323755 0.27762826
0.27762826 23.662601 0.27762826
2.6134027 23.662601 0.27762826
4.9521934 23.662601 0.27762826
7.2909932 23.662601 0.27762826
9.629802 23.662601 0.27762826
11.968556 23.662601 0.27762826
14.307402 23.662601 0.27762826
16.646156 23.662601 0.27762826
18.985001 23.662601 0.27762826
21.323755 23.662601 0.27762826
23.662601 23.662601 0.27762826
26.001355 23.662601 0.27762826
28.3402 23.662601 0.27762826
30.678954 23.662601 0.27762826
33.0178 23.662601 0.27762826
35.356554 23.662601 0.27762826
37.695399 23.662601 0.27762826
40.034154 23.662601 0.27762826
42.372999 23.662601 0.27762826
44.708728 23.662601 0.27762826
0.27762826 26.001355 0.27762826
2.6134027 26.001355 0.27762826
4.9521934 26.001355 0.27762826
7.2909932 26.001355 0.27762826
9.629802 26.001355 0.27762826
11.968556 26.001355 0.27762826
14.307402 26.001355 0.27762826
16.646156 26.001355 0.27762826
18.985001 26.001355 0.27762826
21.323755 26.001355 0.27762826
23.662601 26.001355 0.27762826
26.001355 26.001355 0.27762826
28.3402 26.001355 0.27762826
30.678954 26.001355 0.27762826
33.0178 26.001355 0.27762826
35.356554 26.001355 0.27762826
37.695399 26.001355 0.27762826
40.034154 26.001355 0.27762826
42.372999 26.001355 0.27762826
44.708728 26.001355 0.27762826
0.27762826 28.3402 0.27762826
2.6134027 28.3402 0.27762826
4.9521934 28.3402 0.27762826
7.2909932 28.3402 0.27762826
9.629802 28.3402 0.27762826
11.968556 28.3402 0.27762826
14.307402 28.3402 0.27762826
16.646156 28.3402 0.27762826
18.985001 28.3402 0.27762826
21.323755 28.3402 0.27762826
23.662601 28.3402 0.27762826
26.001355 28.3402 0.27762826
28.3402 28.3402 0.27762826
30.678954 28.3402 0.27762826
33.0178 28.3402 0.27762826
35.356554 28.3402 0.27762826
37.695399 28.3402 0.27762826
40.034154 28.3402 0.27762826
42.372999 28.3402 0.27762826
44.708728 28.3402 0.27762826
0.27762826 30.678954 0.27762826
2.6134027 30.678954 0.27762826
4.9521934 30.678954 0.27762826
7.2909932 30.678954 0.27762826
9.629802 30.678954 0.27762826
11.968556 30.678954 0.27762826
14.307402 30.678954 0.27762826
16.646156 30.678954 0.27762826
18.985001 30.678954 0.27762826
21.323755 30.678954 0.27762826
23.662601 30.678954 0.27762826
26.001355 30.678954 0.27762826
28.3402 30.678954 0.27762826
30.678954 30.678954 0.27762826
33.0178 30.678954 0.27762826
35.356554 30.678954 0.27762826
37.695399 30.678954 0.27762826
40.034154 30.678954 0.27762826
42.372999 30.678954 0.27762826
44.708728 30.678954 0.27762826
0.27762826 33.0178 0.27762826
2.6134027 33.0178 0.27762826
4.9521934 33.0178 0.27762826
7.2909932 33.0178 0.27762826
9.629802 33.0178 0.27762826
11.968556 33.0178 0.27762826
14.307402 33.0178 0.27762826
16.646156 33.0178 0.27762826
18.985001 33.0178 0.27762826
21.323755 33.0178 0.27762826
23.662601 33.0178 0.27762826
26.001355 33.0178 0.27762826
28.3402 33.0178 0.27762826
30.678954 33.0178 0.27762826
33.0178 33.0178 0.27762826
35.356554 33.0178 0.27762826
37.695399 33.0178 0.27762826
40.034154 33.0178 0.27762826
42.372999 33.0178 0.27762826
44.708728 33.0178 0.27762826
0.27762826 35.356554 0.27762826
2.6134027 35.356554 0.27762826
4.9521934 35.356554 0.27762826
7.2909932 35.356554 0.27762826
9.629802 35.356554 0.27762826
11.968556 35.356554 0.27762826
14.307402 35.356554 0.27762826
16.646156 35.356554 0.27762826
18.985001 35.356554 0.27762826
21.323755 35.356554 0.27762826
23.662601 35.356554 0.27762826
26.001355 35.356554 0.27762826
28.3402 35.356554 0.27762826
30.678954 35.356554 0.27762826
33.0178 35.356554 0.27762826
35.356554 35.356554 0.27762826
37.695399 35.356554 0.27762826
40.034154 35.356554 0.27762826
42.372999 35.356554 0.27762826
44.708728 35.356554 0.27762826
0.27762826 37.695399 0.27762826
2.6134027 37.695399 0.27762826
4.9521934 37.695399 0.27762826
[...]
POINT_DATA 3000
SCALARS m double
LOOKUP_TABLE default
1
1
1
1
1
1
1
1
1
1
1
1
1
1
1
1
1
1
1
1
1
1
1
1
1
1
1
1
1
1
1
1
1
1
1
1
1
1
1
1
1
1
1
1
1
1
1
1
1
1
1
1
1
1
1
1
1
1
1
1
1
1
1
1
1
1
1
1
1
1
1
1
1
1
1
1
1
1
1
1
1
1
1
1
1
1
1
1
1
1
1
1
1
1
1
1
1
1
1
1
1
1
1
1
1
1
1
1
1
1
1
1
1
1
1
1
1
1
1
1
1
1
1
1
1
1
1
1
1
1
1
1
1
1
1
1
1
1
1
1
1
1
1
1
1
1
1
1
1
1
1
1
1
1
1
1
1
1
1
1
1
1
1
1
1
1
1
1
1
1
1
1
1
1
1
1
1
1
1
1
1
1
1
1
1
1
1
1
1
1
1
1
1
1
1
1
1
1
1
1
1
1
1
1
1
1
1
1
1
1
1
1
1
1
1
1
1
1
1
1
1
1
1
1
1
1
1
1
1
1
1
1
1
1
1
1
1
1
1
1
1
1
1
1
1
1
1
1
1
1
1
1
1
1
1
1
1
1
1
1
1
1
1
1
1
1
1
1
1
1
1
1
1
1
1
1
1
1
1
1
1
1
1
1
1
1
1
1
1
1
1
1
1
1
1
1
1
1
1
1
1
1
1
1
1
1
1
1
1
1
1
1
1
1
1
1
1
1
1
1
1
1
1
1
1
1
1
1
1
1
1
1
1
1
1
1
1
1
1
1
1
1
1
1
1
1
1
1
1
1
1
1
1
1
1
1
1
1
1
1
1
1
1
1
1
1
1
1
1
1
1
1
1
1
1
1
1
1
1
1
1
1
1
1
1
1
1
1
1
1
1
1
1
1
1
1
1
1
1
1
1
1
1
1
1
1
1
1
1
1
1
1
1
1
1
1
1
1
1
1
1
1
1
1
1
1
1
1
1
1
1
1
1
1
1
1
1
1
1
1
1
1
1
1
1
1
1
1
1
1
1
1
1
1
1
1
1
1
1
1
1
1
1
1
1
1
1
1
1
1
1
1
1
1
1
1
1
1
1
1
1
1
1
1
1
1
1
1
1
1
1
1
1
1
1
1
1
1
1
1
1
1
1
1
1
1
1
1
1
1
1
1
1
1
1
1
1
1
1
1
1
1
1
1
1
1
1
1
1
1
1
1
1
1
1
1
1
1
1
1
1
1
1
1
1
1
1
1
1
1
1
1
1
1
1
1
1
1
1
1
1
1
1
1
1
1
1
1
1
1
1
1
1
1
1
1
1
1
1
1
1
1
1
1
1
1
1
1
1
1
1
1
1
1
1
1
1
1
1
1
1
1
1
1
1
1
1
1
1
1
1
1
1
1
1
1
1
1
1
1
1
1
1
1
1
1
1
1
1
1
1
1
1
1
1
1
1
1
1
1
1
1
1
1
1
1
1
1
1
1
1
1
1
1
1
1
1
1
1
1
1
1
1
1
1
1
1
1
1
1
1
1
1
1
1
1
1
1
1
1
1
1
1
1
1
1
1
1
1
1
1
1
1
1
1
1
1
1
1
1
1
1
1
1
1
1
1
1
1
1
1
1
1
1
1
1
1
1
1
1
1
1
1
1
1
1
1
1
1
1
1
1
1
1
1
1
1
1
1
1
1
1
1
1
1
1
1
1
1
1
1
1
1
1
1
1
1
1
1
1
1
1
1
1
1
1
1
1
1
1
1
1
1
1
1
1
1
1
1
1
1
1
1
1
1
1
1
1
1
1
1
1
1
1
1
1
1
1
1
1
1
1
1
1
1
1
1
1
1
1
1
1
1
1
1
1
1
1
1
1
1
1
1
1
1
1
1
1
1
1
1
1
1
1
1
1
1
1
1
1
1
1
1
1
1
1
1
1
1
1
1
1
1
1
1
1
1
1
1
1
1
1
1
1
1
1
1
1
1
1
1
1
1
1
1
1
1
1
1
1
1
1
1
1
1
1
1
1
1
1
1
1
1
1
1
1
1
1
1
1
1
1
1
1
1
1
1
1
1
1
1
1
1
1
1
1
1
1
1
1
1
1
1
1
1
1
1
1
1
1
1
1
1
1
1
1
1
1
1
1
1
1
1
1
1
1
1
1
1
1
1
1
1
1
1
1
1
1
1
1
1
1
1
1
1
1
1
1
1
1
1
1
1
1
1
1
1
1
1
1
1
1
1
1
1
1
1
1
1
1
1
1
1
1
1
1
1
1
1
1
1
1
1
1
1
1
1
1
1
1
1
1
1
1
1
1
1
1
1
1
1
1
1
1
1
1
1
1
1
1
1
1
1
1
1
1
1
1
1
1
1
1
1
1
1
1
1
1
1
1
1
1
1
1
1
1
1
1
1
1
1
1
1
1
1
1
1
1
1
1
1
1
1
1
1
1
1
1
1
1
1
1
1
1
1
1
1
1
1
1
1
1
1
1
1
1
1
1
1
1
1
1
1
1
1
1
1
1
1
1
1
1
1
1
1
1
1
1
1
1
1
1
1
1
1
1
1
1
1
1
1
1
1
1
1
1
1
1
1
1
1
1
1
1
1
1
1
1
1
1
1
1
1
1
1
1
1
1
1
1
1
1
1
1
1
1
1
1
1
1
1
1
1
1
1
1
1
1
1
1
1
1
1
1
1
1
1
1
1
1
1
1
1
1
1
1
1
1
1
1
1
1
1
1
1
1
1
1
1
1
1
1
1
1
1
1
1
1
1
1
1
1
1
1
1
1
1
1
1
1
1
1
1
1
1
1
1
1
1
1
1
1
1
1
1
1
1
1
1
1
1
1
1
1
1
1
1
1
1
1
1
1
1
1
1
1
1
1
1
1
1
1
1
1
1
1
1
1
1
1
1
1
1
1
1
1
1
1
1
1
1
1
1
1
1
1
1
1
1
1
1
1
1
1
1
1
1
1
1
1
1
1
1
1
1
1
1
1
1
1
1
1
1
1
1
1
1
1
1
1
1
1
1
1
1
1
1
1
1
1
1
1
1
1
1
1
1
1
1
1
1
1
1
1
1
1
1
1
1
1
1
1
1
1
1
1
1
1
1
1
1
1
1
1
1
1
1
1
1
1
1
1
1
1
1
1
1
1
1
1
1
1
1
1
1
1
1
1
1
1
1
1
1
1
1
1
1
1
1
1
1
1
1
1
1
1
1
1
1
1
1
1
1
1
1
1
1
1
1
1
1
1
1
1
1
1
1
1
1
1
1
1
1
1
1
1
1
1
1
1
1
1
1
1
1
1
1
1
1
1
1
1
1
1
1
1
1
1
1
1
1
1
1
1
1
1
1
1
1
1
1
1
1
1
1
1
1
1
1
1
1
1
1
1
1
1
1
1
1
1
1
1
1
1
1
1
1
1
1
1
1
1
1
1
1
1
1
1
1
1
1
1
1
1
1
1
1
1
1
1
1
1
1
1
1
1
1
1
1
1
1
1
1
1
1
1
1
1
1
1
1
1
1
1
1
1
1
1
1
1
1
1
1
1
1
1
1
1
1
1
1
1
1
1
1
1
1
1
1
1
1
1
1
1
1
1
1
1
1
1
1
1
1
1
1
1
1
1
1
1
1
1
1
1
1
1
1
1
1
1
1
1
1
1
1
1
1
1
1
1
1
1
1
1
1
1
1
1
1
1
1
1
1
1
1
1
1
1
1
1
1
1
1
1
1
1
1
1
1
1
1
1
1
1
1
1
1
1
1
1
1
1
1
1
1
1
1
1
1
1
1
1
1
1
1
1
1
1
1
1
1
1
1
1
1
1
1
1
1
1
1
1
1
1
1
1
1
1
1
1
1
1
1
1
1
1
1
1
1
1
1
1
1
1
1
1
1
1
1
1
1
1
1
1
1
1
1
1
1
1
1
1
1
1
1
1
1
1
1
1
1
1
1
1
1
1
1
1
1
1
1
1
1
1
1
1
1
1
1
1
1
1
1
1
1
1
1
1
1
1
1
1
1
1
1
1
1
1
1
1
1
1
1
1
1
1
1
1
1
1
1
1
1
1
1
1
1
1
1
1
1
1
1
1
1
1
1
1
1
1
1
1
1
1
1
1
1
1
1
1
1
1
1
1
1
1
1
1
1
1
1
1
1
1
1
1
1
1
1
1
1
1
1
1
1
1
1
1
1
1
1
1
1
1
1
1
1
1
1
1
1
1
1
1
1
1
1
1
1
1
1
1
1
1
1
1
1
1
1
1
1
1
1
1
1
1
1
1
1
1
1
1
1
1
1
1
1
1
1
1
1
1
1
1
1
1
1
1
1
1
1
1
1
1
1
1
1
1
1
1
1
1
1
1
1
1
1
1
1
1
1
1
1
1
1
1
1
1
1
1
1
1
1
1
1
1
1
1
1
1
1
1
1
1
1
1
1
1
1
1
1
1
1
1
1
1
1
1
1
1
1
1
1
1
1
1
1
1
1
1
1
1
1
1
1
1
1
1
1
1
1
1
1
1
1
1
1
1
1
1
1
1
1
1
1
1
1
1
1
1
1
1
1
1
1
1
1
1
1
1
1
1
1
1
1
1
1
1
1
1
1
1
1
1
1
1
1
1
1
1
1
1
1
1
1
1
1
1
1
1
1
1
1
1
1
1
1
1
1
1
1
1
1
1
1
1
1
1
1
1
1
1
1
1
1
1
1
1
1
1
1
1
1
1
1
1
1
1
1
1
1
1
1
1
1
1
1
1
1
1
1
1
1
1
1
1
1
1
1
1
1
1
1
1
1
1
1
1
1
1
1
1
1
1
1
1
1
1
1
1
1
1
1
1
1
1
1
1
1
1
1
1
1
1
1
1
1
1
1
1
1
1
1
1
1
1
1
1
1
1
1
1
1
1
1
1
1
1
1
1
1
1
1
1
1
1
1
1
1
1
1
1
1
1
1
1
1
1
1
1
1
1
1
1
1
1
1
1
1
1
1
1
1
1
1
1
1
1
1
1
1
1
1
1
1
1
1
1
1
1
1
1
1
1
1
1
1
1
1
1
1
1
1
1
1
1
1
1
1
1
1
1
1
1
1
1
1
1
1
1
1
1
1
1
1
1
1
1
1
1
1
1
1
1
1
1
1
1
1
1
1
1
1
1
1
1
1
1
1
1
1
1
1
1
1
1
1
1
1
1
1
1
1
1
1
1
1
1
1
1
1
1
1
1
1
1
1
1
1
1
1
1
1
1
1
1
1
1
1
1
1
1
1
1
1
1
1
1
1
1
1
1
1
1
1
1
1
1
1
1
1
1
1
1
1
1
1
1
1
1
1
1
1
1
1
1
1
1
1
1
1
1
1
1
1
1
1
1
1
1
1
1
1
1
1
1
1
1
1
1
1
1
1
1
1
1
1
1
1
1
1
1
1
1
1
1
1
1
1
1
1
1
1
1
1
1
1
1
1
1
1
1
1
1
1
1
1
1
1
1
1
1
1
1
1
1
1
1
1
1
1
1
1
1
1
1
1
1
1
1
1
1
1
1
1
1
1
1
1
1
1
1
1
1
1
1
1
1
1
1
1
1
1
1
1
1
1
1
1
1
1
1
1
1
1
1
1
1
1
1
1
1
1
1
1
1
1
1
1
1
1
1
1
1
1
1
1
1
1
1
1
1
1
1
1
1
1
1
1
1
1
1
1
1
1
1
1
1
1
1
1
1
1
1
1
1
1
1
1
1
1
1
1
1
1
1
1
1
1
1
1
1
1
1
1
1
1
1
1
1
1
1
1
1
1
1
1
1
1
1
1
1
1
1
1
1
1
1
1
1
1
1
1
1
1
1
1
1
1
1
1
1
1
1
1
1
1
1
1
1
1
1
1
1
1
1
1
1
1
1
1
1
1
1
1
1
1
1
1
1
1
1
1
1
1
1
1
1
1
1
1
1
1
1
1
1
1
1
1
1
1
1
1
1
1
1
1
1
1
1
1
1
1
1
1
1
1
1
1
1
1
1
1
1
1
1
1
1
1
1
1
1
1
1
1
1
1
1
1
1
1
1
1
1
1
1
1
1
1
1
1
1
1
1
1
1
1
1
1
1
1
1
1
1
1
1
1
1
1
1
1
1
1
1
1
1
1
1
1
1
1
1
1
1
1
1
1
1
1
1
1
1
1
1
1
1
1
1
1
1
1
1
1
1
1
1
1
1
1
1
1
1
1
1
1
1
1
1
1
1
1
1
1
1
1
1
1
1
1
1
1
1
1
1
1
1
1
1
1
1
1
1
1
1
1
1
1
1
1
1
1
1
1
1
1
1
1
1
1
1
1
1
1
1
1
1
1
1
1
1
1
1
1
1
1
1
1
1
1
1
1
1
1
1
1
1
1
1
1
1
1
1
1
1
1
1
1
1
1
1
1
1
1
1
1
1
1
1
1
1
1
1
1
1
1
1
1
1
1
1
1
1
1
1
1
1
1
1
1
1
1
1
1
1
1
1
1
1
1
1
1
1
1
1
1
1
1
1
1
1
1
1
1
1
1
1
1
1
1
1
1
1
1
1
1
1
1
1
1
1
1
1
1
1
1
1
1
1
1
1
1
1
1
1
1
1
1
1
1
1
1
1
1
1
1
1
1
1
1
1
1
1
1
1
1
1
1
1
1
1
1
1
1
1
1
1
1
1
1
1
1
1
1
1
1
1
1
1
1
1
1
1
1
1
1
1
1
1
1
1
1
1
1
1
1
1
1
1
1
1
1
1
1
1
1
1
1
1
1
1
1
1
1
1
1
1
1
1
1
1
VECTORS v double
-1.013609 -1.013609 -1.013609
-2.1068356 -1.013609 -1.013609
-3.193632 -1.013609 -1.013609
-4.2804326 -1.013609 -1.013609
-5.3672374 -1.013609 -1.013609
-6.454017 -1.013609 -1.013609
-7.5408386 -1.013609 -1.013609
-8.6276181 -1.013609 -1.013609
-9.7144398 -1.013609 -1.013609
-10.801219 -1.013609 -1.013609
-11.888041 -1.013609 -1.013609
-12.974821 -1.013609 -1.013609
-14.061642 -1.013609 -1.013609
-15.148422 -1.013609 -1.013609
-16.235243 -1.013609 -1.013609
-17.322023 -1.013609 -1.013609
-18.408845 -1.013609 -1.013609
-19.495624 -1.013609 -1.013609
-20.582446 -1.013609 -1.013609
-21.675651 -1.013609 -1.013609
-1.013609 -2.1068356 -1.013609
-2.1068356 -2.1068356 -1.013609
-3.193632 -2.1068356 -1.013609
-4.2804326 -2.1068356 -1.013609
-5.3672374 -2.1068356 -1.013609
-6.454017 -2.1068356 -1.013609
-7.5408386 -2.1068356 -1.013609
-8.6276181 -2.1068356 -1.013609
-9.7144398 -2.1068356 -1.013609
-10.801219 -2.1068356 -1.013609
-11.888041 -2.1068356 -1.013609
-12.974821 -2.1068356 -1.013609
-14.061642 -2.1068356 -1.013609
-15.148422 -2.1068356 -1.013609
-16.235243 -2.1068356 -1.013609
-17.322023 -2.1068356 -1.013609
-18.408845 -2.1068356 -1.013609
-19.495624 -2.1068356 -1.013609
-20.582446 -2.1068356 -1.013609
-21.675651 -2.1068356 -1.013609
-1.013609 -3.193632 -1.013609
-2.1068356 -3.193632 -1.013609
-3.193632 -3.193632 -1.013609
-4.2804326 -3.193632 -1.013609
-5.3672374 -3.193632 -1.013609
-6.454017 -3.193632 -1.013609
-7.5408386 -3.193632 -1.013609
-8.6276181 -3.193632 -1.013609
-9.7144398 -3.193632 -1.013609
-10.801219 -3.193632 -1.013609
-11.888041 -3.193632 -1.013609
-12.974821 -3.193632 -1.013609
-14.061642 -3.193632 -1.013609
-15.148422 -3.193632 -1.013609
-16.235243 -3.193632 -1.013609
-17.322023 -3.193632 -1.013609
-18.408845 -3.193632 -1.013609
-19.495624 -3.193632 -1.013609
-20.582446 -3.193632 -1.013609
-21.675651 -3.193632 -1.013609
-1.013609 -4.2804326 -1.013609
-2.1068356 -4.2804326 -1.013609
-3.193632 -4.2804326 -1.013609
-4.2804326 -4.2804326 -1.013609
-5.3672374 -4.2804326 -1.013609
-6.454017 -4.2804326 -1.013609
-7.5408386 -4.2804326 -1.013609
-8.6276181 -4.2804326 -1.013609
-9.7144398 -4.2804326 -1.013609
-10.801219 -4.2804326 -1.013609
-11.888041 -4.2804326 -1.013609
-12.974821 -4.2804326 -1.013609
-14.061642 -4.2804326 -1.013609
-15.148422 -4.2804326 -1.013609
-16.235243 -4.2804326 -1.013609
-17.322023 -4.2804326 -1.013609
-18.408845 -4.2804326 -1.013609
-19.495624 -4.2804326 -1.013609
-20.582446 -4.2804326 -1.013609
-21.675651 -4.2804326 -1.013609
-1.013609 -5.3672374 -1.013609
-2.1068356 -5.3672374 -1.013609
-3.193632 -5.3672374 -1.013609
-4.2804326 -5.3672374 -1.013609
-5.3672374 -5.3672374 -1.013609
-6.454017 -5.3672374 -1.013609
-7.5408386 -5.3672374 -1.013609
-8.6276181 -5.3672374 -1.013609
-9.7144398 -5.3672374 -1.013609
-10.801219 -5.3672374 -1.013609
-11.888041 -5.3672374 -1.013609
-12.974821 -5.3672374 -1.013609
-14.061642 -5.3672374 -1.013609
-15.148422 -5.3672374 -1.013609
-16.235243 -5.3672374 -1.013609
-17.322023 -5.3672374 -1.013609
-18.408845 -5.3672374 -1.013609
-19.495624 -5.3672374 -1.013609
-20.582446 -5.3672374 -1.013609
-21.675651 -5.3672374 -1.013609
-1.013609 -6.454017 -1.013609
-2.1068356 -6.454017 -1.013609
-3.193632 -6.454017 -1.013609
-4.2804326 -6.454017 -1.013609
-5.3672374 -6.454017 -1.013609
-6.454017 -6.454017 -1.013609
-7.5408386 -6.454017 -1.013609
-8.6276181 -6.454017 -1.013609
-9.7144398 -6.454017 -1.013609
-10.801219 -6.454017 -1.013609
-11.888041 -6.454017 -1.013609
-12.974821 -6.454017 -1.013609
-14.061642 -6.454017 -1.013609
-15.148422 -6.454017 -1.013609
-16.235243 -6.454017 -1.013609
-17.322023 -6.454017 -1.013609
-18.408845 -6.454017 -1.013609
-19.495624 -6.454017 -1.013609
-20.582446 -6.454017 -1.013609
-21.675651 -6.454017 -1.013609
-1.013609 -7.5408386 -1.013609
-2.1068356 -7.5408386 -1.013609
-3.193632 -7.5408386 -1.013609
-4.2804326 -7.5408386 -1.013609
-5.3672374 -7.5408386 -1.013609
-6.454017 -7.5408386 -1.013609
-7.5408386 -7.5408386 -1.013609
-8.6276181 -7.5408386 -1.013609
-9.7144398 -7.5408386 -1.013609
-10.801219 -7.5408386 -1.013609
-11.888041 -7.5408386 -1.013609
-12.974821 -7.5408386 -1.013609
-14.061642 -7.5408386 -1.013609
-15.148422 -7.5408386 -1.013609
-16.235243 -7.5408386 -1.013609
-17.322023 -7.5408386 -1.013609
-18.408845 -7.5408386 -1.013609
-19.495624 -7.5408386 -1.013609
-20.582446 -7.5408386 -1.013609
-21.675651 -7.5408386 -1.013609
-1.013609 -8.6276181 -1.013609
-2.1068356 -8.6276181 -1.013609
-3.193632 -8.6276181 -1.013609
-4.2804326 -8.6276181 -1.013609
-5.3672374 -8.6276181 -1.013609
-6.454017 -8.6276181 -1.013609
-7.5408386 -8.6276181 -1.013609
-8.6276181 -8.6276181 -1.013609
-9.7144398 -8.6276181 -1.013609
-10.801219 -8.6276181 -1.013609
-11.888041 -8.6276181 -1.013609
-12.974821 -8.6276181 -1.013609
-14.061642 -8.6276181 -1.013609
-15.148422 -8.6276181 -1.013609
-16.235243 -8.6276181 -1.013609
-17.322023 -8.6276181 -1.013609
-18.408845 -8.6276181 -1.013609
-19.495624 -8.6276181 -1.013609
-20.582446 -8.6276181 -1.013609
-21.675651 -8.6276181 -1.013609
-1.013609 -9.7144398 -1.013609
-2.1068356 -9.7144398 -1.013609
-3.193632 -9.7144398 -1.013609
-4.2804326 -9.7144398 -1.013609
-5.3672374 -9.7144398 -1.013609
-6.454017 -9.7144398 -1.013609
-7.5408386 -9.7144398 -1.013609
-8.6276181 -9.7144398 -1.013609
-9.7144398 -9.7144398 -1.013609
-10.801219 -9.7144398 -1.013609
-11.888041 -9.7144398 -1.013609
-12.974821 -9.7144398 -1.013609
-14.061642 -9.7144398 -1.013609
-15.148422 -9.7144398 -1.013609
-16.235243 -9.7144398 -1.013609
-17.322023 -9.7144398 -1.013609
-18.408845 -9.7144398 -1.013609
-19.495624 -9.7144398 -1.013609
-20.582446 -9.7144398 -1.013609
-21.675651 -9.7144398 -1.013609
-1.013609 -10.801219 -1.013609
-2.1068356 -10.801219 -1.013609
-3.193632 -10.801219 -1.013609
-4.2804326 -10.801219 -1.013609
-5.3672374 -10.801219 -1.013609
-6.454017 -10.801219 -1.013609
-7.5408386 -10.801219 -1.013609
-8.6276181 -10.801219 -1.013609
-9.7144398 -10.801219 -1.013609
-10.801219 -10.801219 -1.013609
-11.888041 -10.801219 -1.013609
-12.974821 -10.801219 -1.013609
-14.061642 -10.801219 -1.013609
-15.148422 -10.801219 -1.013609
-16.235243 -10.801219 -1.013609
-17.322023 -10.801219 -1.013609
-18.408845 -10.801219 -1.013609
-19.495624 -10.801219 -1.013609
-20.582446 -10.801219 -1.013609
-21.675651 -10.801219 -1.013609
-1.013609 -11.888041 -1.013609
-2.1068356 -11.888041 -1.013609
-3.193632 -11.888041 -1.013609
-4.2804326 -11.888041 -1.013609
-5.3672374 -11.888041 -1.013609
-6.454017 -11.888041 -1.013609
-7.5408386 -11.888041 -1.013609
-8.6276181 -11.888041 -1.013609
-9.7144398 -11.888041 -1.013609
-10.801219 -11.888041 -1.013609
-11.888041 -11.888041 -1.013609
-12.974821 -11.888041 -1.013609
-14.061642 -11.888041 -1.013609
-15.148422 -11.888041 -1.013609
-16.235243 -11.888041 -1.013609
-17.322023 -11.888041 -1.013609
-18.408845 -11.888041 -1.013609
-19.495624 -11.888041 -1.013609
-20.582446 -11.888041 -1.013609
-21.675651 -11.888041 -1.013609
-1.013609 -12.974821 -1.013609
-2.1068356 -12.974821 -1.013609
-3.193632 -12.974821 -1.013609
-4.2804326 -12.974821 -1.013609
-5.3672374 -12.974821 -1.013609
-6.454017 -12.974821 -1.013609
-7.5408386 -12.974821 -1.013609
-8.6276181 -12.974821 -1.013609
-9.7144398 -12.974821 -1.013609
-10.801219 -12.974821 -1.013609
-11.888041 -12.974821 -1.013609
-12.974821 -12.974821 -1.013609
-14.061642 -12.974821 -1.013609
-15.148422 -12.974821 -1.013609
-16.235243 -12.974821 -1.013609
-17.322023 -12.974821 -1.013609
-18.408845 -12.974821 -1.013609
-19.495624 -12.974821 -1.013609
-20.582446 -12.974821 -1.013609
-21.675651 -12.974821 -1.013609
-1.013609 -14.061642 -1.013609
-2.1068356 -14.061642 -1.013609
-3.193632 -14.061642 -1.013609
-4.2804326 -14.061642 -1.013609
-5.3672374 -14.061642 -1.013609
-6.454017 -14.061642 -1.013609
-7.5408386 -14.061642 -1.013609
-8.6276181 -14.061642 -1.013609
-9.7144398 -14.061642 -1.013609
-10.801219 -14.061642 -1.013609
-11.888041 -14.061642 -1.013609
-12.974821 -14.061642 -1.013609
-14.061642 -14.061642 -1.013609
-15.148422 -14.061642 -1.013609
-16.235243 -14.061642 -1.013609
-17.322023 -14.061642 -1.013609
-18.408845 -14.061642 -1.013609
-19.495624 -14.061642 -1.013609
-20.582446 -14.061642 -1.013609
-21.675651 -14.061642 -1.013609
-1.013609 -15.148422 -1.013609
-2.1068356 -15.148422 -1.013609
-3.193632 -15.148422 -1.013609
-4.2804326 -15.148422 -1.013609
-5.3672374 -15.148422 -1.013609
-6.454017 -15.148422 -1.013609
-7.5408386 -15.148422 -1.013609
-8.6276181 -15.148422 -1.013609
-9.7144398 -15.148422 -1.013609
-10.801219 -15.148422 -1.013609
-11.888041 -15.148422 -1.013609
-12.974821 -15.148422 -1.013609
-14.061642 -15.148422 -1.013609
-15.148422 -15.148422 -1.013609
-16.235243 -15.148422 -1.013609
-17.322023 -15.148422 -1.013609
-18.408845 -15.148422 -1.013609
-19.495624 -15.148422 -1.013609
-20.582446 -15.148422 -1.013609
-21.675651 -15.148422 -1.013609
-1.013609 -16.235243 -1.013609
-2.1068356 -16.235243 -1.013609
-3.193632 -16.235243 -1.013609
-4.2804326 -16.235243 -1.013609
-5.3672374 -16.235243 -1.013609
-6.454017 -16.235243 -1.013609
-7.5408386 -16.235243 -1.013609
-8.6276181 -16.235243 -1.013609
-9.7144398 -16.235243 -1.013609
-10.801219 -16.235243 -1.013609
-11.888041 -16.235243 -1.013609
-12.974821 -16.235243 -1.013609
-14.061642 -16.235243 -1.013609
-15.148422 -16.235243 -1.013609
-16.235243 -16.235243 -1.013609
-17.322023 -16.235243 -1.013609
-18.408845 -16.235243 -1.013609
-19.495624 -16.235243 -1.013609
-20.582446 -16.235243 -1.013609
-21.675651 -16.235243 -1.013609
-1.013609 -17.322023 -1.013609
-2.1068356 -17.322023 -1.013609
-3.193632 -17.322023 -1.013609
-4.2804326 -17.322023 -1.013609
-5.3672374 -17.322023 -1.013609
-6.454017 -17.322023 -1.013609
-7.5408386 -17.322023 -1.013609
-8.6276181 -17.322023 -1.013609
-9.7144398 -17.322023 -1.013609
-10.801219 -17.322023 -1.013609
-11.888041 -17.322023 -1.013609
-12.974821 -17.322023 -1.013609
-14.061642 -17.322023 -1.013609
-15.148422 -17.322023 -1.013609
-16.235243 -17.322023 -1.013609
-17.322023 -17.322023 -1.013609
-18.408845 -17.322023 -1.013609
-19.495624 -17.322023 -1.013609
-20.582446 -17.322023 -1.013609
-21.675651 -17.322023 -1.013609
-1.013609 -18.408845 -1.013609
-2.1068356 -18.408845 -1.013609
-3.193632 -18.408845 -1.013609
-4.2804326 -18.408845 -1.013609
-5.3672374 -18.408845 -1.013609
-6.454017 -18.408845 -1.013609
-7.5408386 -18.408845 -1.013609
-8.6276181 -18.408845 -1.013609
-9.7144398 -18.408845 -1.013609
-10.801219 -18.408845 -1.013609
-11.888041 -18.408845 -1.013609
-12.974821 -18.408845 -1.013609
-14.061642 -18.408845 -1.013609
-15.148422 -18.408845 -1.013609
-16.235243 -18.408845 -1.013609
-17.322023 -18.408845 -1.013609
-18.408845 -18.408845 -1.013609
-19.495624 -18.408845 -1.013609
-20.582446 -18.408845 -1.013609
-21.675651 -18.408845 -1.013609
-1.013609 -19.495624 -1.013609
-2.1068356 -19.495624 -1.013609
-3.193632 -19.495624 -1.013609
-4.2804326 -19.495624 -1.013609
-5.3672374 -19.495624 -1.013609
-6.454017 -19.495624 -1.013609
-7.5408386 -19.495624 -1.013609
-8.6276181 -19.495624 -1.013609
-9.7144398 -19.495624 -1.013609
-10.801219 -19.495624 -1.013609
-11.888041 -19.495624 -1.013609
-12.974821 -19.495624 -1.013609
-14.061642 -19.495624 -1.013609
-15.148422 -19.495624 -1.013609
-16.235243 -19.495624 -1.013609
-17.322023 -19.495624 -1.013609
-18.408845 -19.495624 -1.013609
-19.495624 -19.495624 -1.013609
-20.582446 -19.495624 -1.013609
-21.675651 -19.495624 -1.013609
-1.013609 -20.582446 -1.013609
-2.1068356 -20.582446 -1.013609
-3.193632 -20.582446 -1.013609
-4.2804326 -20.582446 -1.013609
-5.3672374 -20.582446 -1.013609
-6.454017 -20.582446 -1.013609
-7.5408386 -20.582446 -1.013609
-8.6276181 -20.582446 -1.013609
-9.7144398 -20.582446 -1.013609
-10.801219 -20.582446 -1.013609
-11.888041 -20.582446 -1.013609
-12.974821 -20.582446 -1.013609
-14.061642 -20.582446 -1.013609
-15.148422 -20.582446 -1.013609
-16.235243 -20.582446 -1.013609
-17.322023 -20.582446 -1.013609
-18.408845 -20.582446 -1.013609
-19.495624 -20.582446 -1.013609
-20.582446 -20.582446 -1.013609
-21.675651 -20.582446 -1.013609
-1.013609 -21.675651 -1.013609
-2.1068356 -21.675651 -1.013609
-3.193632 -21.675651 -1.013609
-4.2804326 -21.675651 -1.013609
-5.3672374 -21.675651 -1.013609
-6.454017 -21.675651 -1.013609
-7.5408386 -21.675651 -1.013609
-8.6276181 -21.675651 -1.013609
-9.7144398 -21.675651 -1.013609
-10.801219 -21.675651 -1.013609
-11.888041 -21.675651 -1.013609
-12.974821 -21.675651 -1.013609
-14.061642 -21.675651 -1.013609
-15.148422 -21.675651 -1.013609
-16.235243 -21.675651 -1.013609
-17.322023 -21.675651 -1.013609
-18.408845 -21.675651 -1.013609
-19.495624 -21.675651 -1.013609
-20.582446 -21.675651 -1.013609
-21.675651 -21.675651 -1.013609
-1.013609 -1.013609 -2.1068356
-2.1068356 -1.013609 -2.1068356
-3.193632 -1.013609 -2.1068356
-4.2804326 -1.013609 -2.1068356
-5.3672374 -1.013609 -2.1068356
-6.454017 -1.013609 -2.1068356
-7.5408386 -1.013609 -2.1068356
-8.6276181 -1.013609 -2.1068356
-9.7144398 -1.013609 -2.1068356
-10.801219 -1.013609 -2.1068356
-11.888041 -1.013609 -2.1068356
-12.974821 -1.013609 -2.1068356
-14.061642 -1.013609 -2.1068356
-15.148422 -1.013609 -2.1068356
-16.235243 -1.013609 -2.1068356
-17.322023 -1.013609 -2.1068356
-18.408845 -1.013609 -2.1068356
-19.495624 -1.013609 -2.1068356
-20.582446 -1.013609 -2.1068356
-21.675651 -1.013609 -2.1068356
-1.013609 -2.1068356 -2.1068356
-2.1068356 -2.1068356 -2.1068356
-3.193632 -2.1068356 -2.1068356
-4.2804326 -2.1068356 -2.1068356
-5.3672374 -2.1068356 -2.1068356
-6.454017 -2.1068356 -2.1068356
-7.5408386 -2.1068356 -2.1068356
-8.6276181 -2.1068356 -2.1068356
-9.7144398 -2.1068356 -2.1068356
-10.801219 -2.1068356 -2.1068356
-11.888041 -2.1068356 -2.1068356
-12.974821 -2.1068356 -2.1068356
-14.061642 -2.1068356 -2.1068356
-15.148422 -2.1068356 -2.1068356
-16.235243 -2.1068356 -2.1068356
-17.322023 -2.1068356 -2.1068356
-18.408845 -2.1068356 -2.1068356
-19.495624 -2.1068356 -2.1068356