# vtk DataFile Version 4.0
hesp visualization file
ASCII
DATASET UNSTRUCTURED_GRID
POINTS 3000 double
0.25691747 0.25691747 0.25691747
2.5703613 0.25691747 0.25691747
4.8869494 0.25691747 0.25691747
7.2035465 0.25691747 0.25691747
9.5201526 0.25691747 0.25691747
11.836705 0.25691747 0.25691747
14.153347 0.25691747 0.25691747
16.469899 0.25691747 0.25691747
18.786541 0.25691747 0.25691747
21.103093 0.25691747 0.25691747
23.419735 0.25691747 0.25691747
25.736287 0.25691747 0.25691747
28.052929 0.25691747 0.25691747
30.369481 0.25691747 0.25691747
32.686123 0.25691747 0.25691747
35.002676 0.25691747 0.25691747
37.319318 0.25691747 0.25691747
39.63587 0.25691747 0.25691747
41.952512 0.25691747 0.25691747
44.265911 0.25691747 0.25691747
0.25691747 2.5703613 0.25691747
2.5703613 2.5703613 0.25691747
4.8869494 2.5703613 0.25691747
7.2035465 2.5703613 0.25691747
9.5201526 2.5703613 0.25691747
11.836705 2.5703613 0.25691747
14.153347 2.5703613 0.25691747
16.469899 2.5703613 0.25691747
18.786541 2.5703613 0.25691747
21.103093 2.5703613 0.25691747
23.419735 2.5703613 0.25691747
25.736287 2.5703613 0.25691747
28.052929 2.5703613 0.25691747
30.369481 2.5703613 0.25691747
32.686123 2.5703613 0.25691747
35.002676 2.5703613 0.25691747
37.319318 2.5703613 0.25691747
39.63587 2.5703613 0.25691747
41.952512 2.5703613 0.25691747
44.265911 2.5703613 0.25691747
0.25691747 4.8869494 0.25691747
2.5703613 4.8869494 0.25691747
4.8869494 4.8869494 0.25691747
7.2035465 4.8869494 0.25691747
9.5201526 4.8869494 0.25691747
11.836705 4.8869494 0.25691747
14.153347 4.8869494 0.25691747
16.469899 4.8869494 0.25691747
18.786541 4.8869494 0.25691747
21.103093 4.8869494 0.25691747
23.419735 4.8869494 0.25691747
25.736287 4.8869494 0.25691747
28.052929 4.8869494 0.25691747
30.369481 4.8869494 0.25691747
32.686123 4.8869494 0.25691747
35.002676 4.8869494 0.25691747
37.319318 4.8869494 0.25691747
39.63587 4.8869494 0.25691747
41.952512 4.8869494 0.25691747
44.265911 4.8869494 0.25691747
0.25691747 7.2035465 0.25691747
2.5703613 7.2035465 0.25691747
4.8869494 7.2035465 0.25691747
7.2035465 7.2035465 0.25691747
9.5201526 7.2035465 0.25691747
11.836705 7.2035465 0.25691747
14.153347 7.2035465 0.25691747
16.469899 7.2035465 0.25691747
18.786541 7.2035465 0.25691747
21.103093 7.2035465 0.25691747
23.419735 7.2035465 0.25691747
25.736287 7.2035465 0.25691747
28.052929 7.2035465 0.25691747
30.369481 7.2035465 0.25691747
32.686123 7.2035465 0.25691747
35.002676 7.2035465 0.25691747
37.319318 7.2035465 0.25691747
39.63587 7.2035465 0.25691747
41.952512 7.2035465 0.25691747
44.265911 7.2035465 0.25691747
0.25691747 9.5201526 0.25691747
2.5703613 9.5201526 0.25691747
4.8869494 9.5201526 0.25691747
7.2035465 9.5201526 0.25691747
9.5201526 9.5201526 0.25691747
11.836705 9.5201526 0.25691747
14.153347 9.5201526 0.25691747
16.469899 9.5201526 0.25691747
18.786541 9.5201526 0.25691747
21.103093 9.5201526 0.25691747
23.419735 9.5201526 0.25691747
25.736287 9.5201526 0.25691747
28.052929 9.5201526 0.25691747
30.369481 9.5201526 0.25691747
32.686123 9.5201526 0.25691747
35.002676 9.5201526 0.25691747
37.319318 9.5201526 0.25691747
39.63587 9.5201526 0.25691747
41.952512 9.5201526 0.25691747
44.265911 9.5201526 0.25691747
0.25691747 11.836705 0.25691747
2.5703613 11.836705 0.25691747
4.8869494 11.836705 0.25691747
7.2035465 11.836705 0.25691747
9.5201526 11.836705 0.25691747
11.836705 11.836705 0.25691747
14.153347 11.836705 0.25691747
16.469899 11.836705 0.25691747
18.786541 11.836705 0.25691747
21.103093 11.836705 0.25691747
23.419735 11.836705 0.25691747
25.736287 11.836705 0.25691747
28.052929 11.836705 0.25691747
30.369481 11.836705 0.25691747
32.686123 11.836705 0.25691747
35.002676 11.836705 0.25691747
37.319318 11.836705 0.25691747
39.63587 11.836705 0.25691747
41.952512 11.836705 0.25691747
44.265911 11.836705 0.25691747
0.25691747 14.153347 0.25691747
2.5703613 14.153347 0.25691747
4.8869494 14.153347 0.25691747
7.2035465 14.153347 0.25691747
9.5201526 14.153347 0.25691747
11.836705 14.153347 0.25691747
14.153347 14.153347 0.25691747
16.469899 14.153347 0.25691747
18.786541 14.153347 0.25691747
21.103093 14.153347 0.25691747
23.419735 14.153347 0.25691747
25.736287 14.153347 0.25691747
28.052929 14.153347 0.25691747
30.369481 14.153347 0.25691747
32.686123 14.153347 0.25691747
35.002676 14.153347 0.25691747
37.319318 14.153347 0.25691747
39.63587 14.153347 0.25691747
41.952512 14.153347 0.25691747
44.265911 14.153347 0.25691747
0.25691747 16.469899 0.25691747
2.5703613 16.469899 0.25691747
4.8869494 16.469899 0.25691747
7.2035465 16.469899 0.25691747
9.5201526 16.469899 0.25691747
11.836705 16.469899 0.25691747
14.153347 16.469899 0.25691747
16.469899 16.469899 0.25691747
18.786541 16.469899 0.25691747
21.103093 16.469899 0.25691747
23.419735 16.469899 0.25691747
25.736287 16.469899 0.25691747
28.052929 16.469899 0.25691747
30.369481 16.469899 0.25691747
32.686123 16.469899 0.25691747
35.002676 16.469899 0.25691747
37.319318 16.469899 0.25691747
39.63587 16.469899 0.25691747
41.952512 16.469899 0.25691747
44.265911 16.469899 0.25691747
0.25691747 18.786541 0.25691747
2.5703613 18.786541 0.25691747
4.8869494 18.786541 0.25691747
7.2035465 18.786541 0.25691747
9.5201526 18.786541 0.25691747
11.836705 18.786541 0.25691747
14.153347 18.786541 0.25691747
16.469899 18.786541 0.25691747
18.786541 18.786541 0.25691747
21.103093 18.786541 0.25691747
23.419735 18.786541 0.25691747
25.736287 18.786541 0.25691747
28.052929 18.786541 0.25691747
30.369481 18.786541 0.25691747
32.686123 18.786541 0.25691747
35.002676 18.786541 0.25691747
37.319318 18.786541 0.25691747
39.63587 18.786541 0.25691747
41.952512 18.786541 0.25691747
44.265911 18.786541 0.25691747
0.25691747 21.103093 0.25691747
2.5703613 21.103093 0.25691747
4.8869494 21.103093 0.25691747
7.2035465 21.103093 0.25691747
9.5201526 21.103093 0.25691747
11.836705 21.103093 0.25691747
14.153347 21.103093 0.25691747
16.469899 21.103093 0.25691747
18.786541 21.103093 0.25691747
21.103093 21.103093 0.25691747
23.419735 21.103093 0.25691747
25.736287 21.103093 0.25691747
28.052929 21.103093 0.25691747
30.369481 21.103093 0.25691747
32.686123 21.103093 0.25691747
35.002676 21.103093 0.25691747
37.319318 21.103093 0.25691747
39.63587 21.103093 0.25691747
41.952512 21.103093 0.25691747
44.265911 21.103093 0.25691747
0.25691747 23.419735 0.25691747
2.5703613 23.419735 0.25691747
4.8869494 23.419735 0.25691747
7.2035465 23.419735 0.25691747
9.5201526 23.419735 0.25691747
11.836705 23.419735 0.25691747
14.153347 23.419735 0.25691747
16.469899 23.419735 0.25691747
18.786541 23.419735 0.25691747
21.103093 23.419735 0.25691747
23.419735 23.419735 0.25691747
25.736287 23.419735 0.25691747
28.052929 23.419735 0.25691747
30.369481 23.419735 0.25691747
32.686123 23.419735 0.25691747
35.002676 23.419735 0.25691747
37.319318 23.419735 0.25691747
39.63587 23.419735 0.25691747
41.952512 23.419735 0.25691747
44.265911 23.419735 0.25691747
0.25691747 25.736287 0.25691747
2.5703613 25.736287 0.25691747
4.8869494 25.736287 0.25691747
7.2035465 25.736287 0.25691747
9.5201526 25.736287 0.25691747
11.836705 25.736287 0.25691747
14.153347 25.736287 0.25691747
16.469899 25.736287 0.25691747
18.786541 25.736287 0.25691747
21.103093 25.736287 0.25691747
23.419735 25.736287 0.25691747
25.736287 25.736287 0.25691747
28.052929 25.736287 0.25691747
30.369481 25.736287 0.25691747
32.686123 25.736287 0.25691747
35.002676 25.736287 0.25691747
37.319318 25.736287 0.25691747
39.63587 25.736287 0.25691747
41.952512 25.736287 0.25691747
44.265911 25.736287 0.25691747
0.25691747 28.052929 0.25691747
2.5703613 28.052929 0.25691747
4.8869494 28.052929 0.25691747
7.2035465 28.052929 0.25691747
9.5201526 28.052929 0.25691747
11.836705 28.052929 0.25691747
14.153347 28.052929 0.25691747
16.469899 28.052929 0.25691747
18.786541 28.052929 0.25691747
21.103093 28.052929 0.25691747
23.419735 28.052929 0.25691747
25.736287 28.052929 0.25691747
28.052929 28.052929 0.25691747
30.369481 28.052929 0.25691747
32.686123 28.052929 0.25691747
35.002676 28.052929 0.25691747
37.319318 28.052929 0.25691747
39.63587 28.052929 0.25691747
41.952512 28.052929 0.25691747
44.265911 28.052929 0.25691747
0.25691747 30.369481 0.25691747
2.5703613 30.369481 0.25691747
4.8869494 30.369481 0.25691747
7.2035465 30.369481 0.25691747
9.5201526 30.369481 0.25691747
11.836705 30.369481 0.25691747
14.153347 30.369481 0.25691747
16.469899 30.369481 0.25691747
18.786541 30.369481 0.25691747
21.103093 30.369481 0.25691747
23.419735 30.369481 0.25691747
25.736287 30.369481 0.25691747
28.052929 30.369481 0.25691747
30.369481 30.369481 0.25691747
32.686123 30.369481 0.25691747
35.002676 30.369481 0.25691747
37.319318 30.369481 0.25691747
39.63587 30.369481 0.25691747
41.952512 30.369481 0.25691747
44.265911 30.369481 0.25691747
0.25691747 32.686123 0.25691747
2.5703613 32.686123 0.25691747
4.8869494 32.686123 0.25691747
7.2035465 32.686123 0.25691747
9.5201526 32.686123 0.25691747
11.836705 32.686123 0.25691747
14.153347 32.686123 0.25691747
16.469899 32.686123 0.25691747
18.786541 32.686123 0.25691747
21.103093 32.686123 0.25691747
23.419735 32.686123 0.25691747
25.736287 32.686123 0.25691747
28.052929 32.686123 0.25691747
30.369481 32.686123 0.25691747
32.686123 32.686123 0.25691747
35.002676 32.686123 0.25691747
37.319318 32.686123 0.25691747
39.63587 32.686123 0.25691747
41.952512 32.686123 0.25691747
44.265911 32.686123 0.25691747
0.25691747 35.002676 0.25691747
2.5703613 35.002676 0.25691747
4.8869494 35.002676 0.25691747
7.2035465 35.002676 0.25691747
9.5201526 35.002676 0.25691747
11.836705 35.002676 0.25691747
14.153347 35.002676 0.25691747
16.469899 35.002676 0.25691747
18.786541 35.002676 0.25691747
21.103093 35.002676 0.25691747
23.419735 35.002676 0.25691747
25.736287 35.002676 0.25691747
28.052929 35.002676 0.25691747
30.369481 35.002676 0.25691747
32.686123 35.002676 0.25691747
35.002676 35.002676 0.25691747
37.319318 35.002676 0.25691747
39.63587 35.002676 0.25691747
[...]
POINT_DATA 3000
SCALARS m double
LOOKUP_TABLE default
1
1
1
1
1
1
1
1
1
1
1
1
1
1
1
1
1
1
1
1
1
1
1
1
1
1
1
1
1
1
1
1
1
1
1
1
1
1
1
1
1
1
1
1
1
1
1
1
1
1
1
1
1
1
1
1
1
1
1
1
1
1
1
1
1
1
1
1
1
1
1
1
1
1
1
1
1
1
1
1
1
1
1
1
1
1
1
1
1
1
1
1
1
1
1
1
1
1
1
1
1
1
1
1
1
1
1
1
1
1
1
1
1
1
1
1
1
1
1
1
1
1
1
1
1
1
1
1
1
1
1
1
1
1
1
1
1
1
1
1
1
1
1
1
1
1
1
1
1
1
1
1
1
1
1
1
1
1
1
1
1
1
1
1
1
1
1
1
1
1
1
1
1
1
1
1
1
1
1
1
1
1
1
1
1
1
1
1
1
1
1
1
1
1
1
1
1
1
1
1
1
1
1
1
1
1
1
1
1
1
1
1
1
1
1
1
1
1
1
1
1
1
1
1
1
1
1
1
1
1
1
1
1
1
1
1
1
1
1
1
1
1
1
1
1
1
1
1
1
1
1
1
1
1
1
1
1
1
1
1
1
1
1
1
1
1
1
1
1
1
1
1
1
1
1
1
1
1
1
1
1
1
1
1
1
1
1
1
1
1
1
1
1
1
1
1
1
1
1
1
1
1
1
1
1
1
1
1
1
1
1
1
1
1
1
1
1
1
1
1
1
1
1
1
1
1
1
1
1
1
1
1
1
1
1
1
1
1
1
1
1
1
1
1
1
1
1
1
1
1
1
1
1
1
1
1
1
1
1
1
1
1
1
1
1
1
1
1
1
1
1
1
1
1
1
1
1
1
1
1
1
1
1
1
1
1
1
1
1
1
1
1
1
1
1
1
1
1
1
1
1
1
1
1
1
1
1
1
1
1
1
1
1
1
1
1
1
1
1
1
1
1
1
1
1
1
1
1
1
1
1
1
1
1
1
1
1
1
1
1
1
1
1
1
1
1
1
1
1
1
1
1
1
1
1
1
1
1
1
1
1
1
1
1
1
1
1
1
1
1
1
1
1
1
1
1
1
1
1
1
1
1
1
1
1
1
1
1
1
1
1
1
1
1
1
1
1
1
1
1
1
1
1
1
1
1
1
1
1
1
1
1
1
1
1
1
1
1
1
1
1
1
1
1
1
1
1
1
1
1
1
1
1
1
1
1
1
1
1
1
1
1
1
1
1
1
1
1
1
1
1
1
1
1
1
1
1
1
1
1
1
1
1
1
1
1
1
1
1
1
1
1
1
1
1
1
1
1
1
1
1
1
1
1
1
1
1
1
1
1
1
1
1
1
1
1
1
1
1
1
1
1
1
1
1
1
1
1
1
1
1
1
1
1
1
1
1
1
1
1
1
1
1
1
1
1
1
1
1
1
1
1
1
1
1
1
1
1
1
1
1
1
1
1
1
1
1
1
1
1
1
1
1
1
1
1
1
1
1
1
1
1
1
1
1
1
1
1
1
1
1
1
1
1
1
1
1
1
1
1
1
1
1
1
1
1
1
1
1
1
1
1
1
1
1
1
1
1
1
1
1
1
1
1
1
1
1
1
1
1
1
1
1
1
1
1
1
1
1
1
1
1
1
1
1
1
1
1
1
1
1
1
1
1
1
1
1
1
1
1
1
1
1
1
1
1
1
1
1
1
1
1
1
1
1
1
1
1
1
1
1
1
1
1
1
1
1
1
1
1
1
1
1
1
1
1
1
1
1
1
1
1
1
1
1
1
1
1
1
1
1
1
1
1
1
1
1
1
1
1
1
1
1
1
1
1
1
1
1
1
1
1
1
1
1
1
1
1
1
1
1
1
1
1
1
1
1
1
1
1
1
1
1
1
1
1
1
1
1
1
1
1
1
1
1
1
1
1
1
1
1
1
1
1
1
1
1
1
1
1
1
1
1
1
1
1
1
1
1
1
1
1
1
1
1
1
1
1
1
1
1
1
1
1
1
1
1
1
1
1
1
1
1
1
1
1
1
1
1
1
1
1
1
1
1
1
1
1
1
1
1
1
1
1
1
1
1
1
1
1
1
1
1
1
1
1
1
1
1
1
1
1
1
1
1
1
1
1
1
1
1
1
1
1
1
1
1
1
1
1
1
1
1
1
1
1
1
1
1
1
1
1
1
1
1
1
1
1
1
1
1
1
1
1
1
1
1
1
1
1
1
1
1
1
1
1
1
1
1
1
1
1
1
1
1
1
1
1
1
1
1
1
1
1
1
1
1
1
1
1
1
1
1
1
1
1
1
1
1
1
1
1
1
1
1
1
1
1
1
1
1
1
1
1
1
1
1
1
1
1
1
1
1
1
1
1
1
1
1
1
1
1
1
1
1
1
1
1
1
1
1
1
1
1
1
1
1
1
1
1
1
1
1
1
1
1
1
1
1
1
1
1
1
1
1
1
1
1
1
1
1
1
1
1
1
1
1
1
1
1
1
1
1
1
1
1
1
1
1
1
1
1
1
1
1
1
1
1
1
1
1
1
1
1
1
1
1
1
1
1
1
1
1
1
1
1
1
1
1
1
1
1
1
1
1
1
1
1
1
1
1
1
1
1
1
1
1
1
1
1
1
1
1
1
1
1
1
1
1
1
1
1
1
1
1
1
1
1
1
1
1
1
1
1
1
1
1
1
1
1
1
1
1
1
1
1
1
1
1
1
1
1
1
1
1
1
1
1
1
1
1
1
1
1
1
1
1
1
1
1
1
1
1
1
1
1
1
1
1
1
1
1
1
1
1
1
1
1
1
1
1
1
1
1
1
1
1
1
1
1
1
1
1
1
1
1
1
1
1
1
1
1
1
1
1
1
1
1
1
1
1
1
1
1
1
1
1
1
1
1
1
1
1
1
1
1
1
1
1
1
1
1
1
1
1
1
1
1
1
1
1
1
1
1
1
1
1
1
1
1
1
1
1
1
1
1
1
1
1
1
1
1
1
1
1
1
1
1
1
1
1
1
1
1
1
1
1
1
1
1
1
1
1
1
1
1
1
1
1
1
1
1
1
1
1
1
1
1
1
1
1
1
1
1
1
1
1
1
1
1
1
1
1
1
1
1
1
1
1
1
1
1
1
1
1
1
1
1
1
1
1
1
1
1
1
1
1
1
1
1
1
1
1
1
1
1
1
1
1
1
1
1
1
1
1
1
1
1
1
1
1
1
1
1
1
1
1
1
1
1
1
1
1
1
1
1
1
1
1
1
1
1
1
1
1
1
1
1
1
1
1
1
1
1
1
1
1
1
1
1
1
1
1
1
1
1
1
1
1
1
1
1
1
1
1
1
1
1
1
1
1
1
1
1
1
1
1
1
1
1
1
1
1
1
1
1
1
1
1
1
1
1
1
1
1
1
1
1
1
1
1
1
1
1
1
1
1
1
1
1
1
1
1
1
1
1
1
1
1
1
1
1
1
1
1
1
1
1
1
1
1
1
1
1
1
1
1
1
1
1
1
1
1
1
1
1
1
1
1
1
1
1
1
1
1
1
1
1
1
1
1
1
1
1
1
1
1
1
1
1
1
1
1
1
1
1
1
1
1
1
1
1
1
1
1
1
1
1
1
1
1
1
1
1
1
1
1
1
1
1
1
1
1
1
1
1
1
1
1
1
1
1
1
1
1
1
1
1
1
1
1
1
1
1
1
1
1
1
1
1
1
1
1
1
1
1
1
1
1
1
1
1
1
1
1
1
1
1
1
1
1
1
1
1
1
1
1
1
1
1
1
1
1
1
1
1
1
1
1
1
1
1
1
1
1
1
1
1
1
1
1
1
1
1
1
1
1
1
1
1
1
1
1
1
1
1
1
1
1
1
1
1
1
1
1
1
1
1
1
1
1
1
1
1
1
1
1
1
1
1
1
1
1
1
1
1
1
1
1
1
1
1
1
1
1
1
1
1
1
1
1
1
1
1
1
1
1
1
1
1
1
1
1
1
1
1
1
1
1
1
1
1
1
1
1
1
1
1
1
1
1
1
1
1
1
1
1
1
1
1
1
1
1
1
1
1
1
1
1
1
1
1
1
1
1
1
1
1
1
1
1
1
1
1
1
1
1
1
1
1
1
1
1
1
1
1
1
1
1
1
1
1
1
1
1
1
1
1
1
1
1
1
1
1
1
1
1
1
1
1
1
1
1
1
1
1
1
1
1
1
1
1
1
1
1
1
1
1
1
1
1
1
1
1
1
1
1
1
1
1
1
1
1
1
1
1
1
1
1
1
1
1
1
1
1
1
1
1
1
1
1
1
1
1
1
1
1
1
1
1
1
1
1
1
1
1
1
1
1
1
1
1
1
1
1
1
1
1
1
1
1
1
1
1
1
1
1
1
1
1
1
1
1
1
1
1
1
1
1
1
1
1
1
1
1
1
1
1
1
1
1
1
1
1
1
1
1
1
1
1
1
1
1
1
1
1
1
1
1
1
1
1
1
1
1
1
1
1
1
1
1
1
1
1
1
1
1
1
1
1
1
1
1
1
1
1
1
1
1
1
1
1
1
1
1
1
1
1
1
1
1
1
1
1
1
1
1
1
1
1
1
1
1
1
1
1
1
1
1
1
1
1
1
1
1
1
1
1
1
1
1
1
1
1
1
1
1
1
1
1
1
1
1
1
1
1
1
1
1
1
1
1
1
1
1
1
1
1
1
1
1
1
1
1
1
1
1
1
1
1
1
1
1
1
1
1
1
1
1
1
1
1
1
1
1
1
1
1
1
1
1
1
1
1
1
1
1
1
1
1
1
1
1
1
1
1
1
1
1
1
1
1
1
1
1
1
1
1
1
1
1
1
1
1
1
1
1
1
1
1
1
1
1
1
1
1
1
1
1
1
1
1
1
1
1
1
1
1
1
1
1
1
1
1
1
1
1
1
1
1
1
1
1
1
1
1
1
1
1
1
1
1
1
1
1
1
1
1
1
1
1
1
1
1
1
1
1
1
1
1
1
1
1
1
1
1
1
1
1
1
1
1
1
1
1
1
1
1
1
1
1
1
1
1
1
1
1
1
1
1
1
1
1
1
1
1
1
1
1
1
1
1
1
1
1
1
1
1
1
1
1
1
1
1
1
1
1
1
1
1
1
1
1
1
1
1
1
1
1
1
1
1
1
1
1
1
1
1
1
1
1
1
1
1
1
1
1
1
1
1
1
1
1
1
1
1
1
1
1
1
1
1
1
1
1
1
1
1
1
1
1
1
1
1
1
1
1
1
1
1
1
1
1
1
1
1
1
1
1
1
1
1
1
1
1
1
1
1
1
1
1
1
1
1
1
1
1
1
1
1
1
1
1
1
1
1
1
1
1
1
1
1
1
1
1
1
1
1
1
1
1
1
1
1
1
1
1
1
1
1
1
1
1
1
1
1
1
1
1
1
1
1
1
1
1
1
1
1
1
1
1
1
1
1
1
1
1
1
1
1
1
1
1
1
1
1
1
1
1
1
1
1
1
1
1
1
1
1
1
1
1
1
1
1
1
1
1
1
1
1
1
1
1
1
1
1
1
1
1
1
1
1
1
1
1
1
1
1
1
1
1
1
1
1
1
1
1
1
1
1
1
1
1
1
1
1
1
1
1
1
1
1
1
1
1
1
1
1
1
1
1
1
1
1
1
1
1
1
1
1
1
1
1
1
1
1
1
1
1
1
1
1
1
1
1
1
1
1
1
1
1
1
1
1
1
1
1
1
1
1
1
1
1
1
1
1
1
1
1
1
1
1
1
1
1
1
1
1
1
1
1
1
1
1
1
1
1
1
1
1
1
1
1
1
1
1
1
1
1
1
1
1
1
1
1
1
1
1
1
1
1
1
1
1
1
1
1
1
1
1
1
1
1
1
1
1
1
1
1
1
1
1
1
1
1
1
1
1
1
1
1
1
1
1
1
1
1
1
1
1
1
1
1
1
1
1
1
1
1
1
1
1
1
1
1
1
1
1
1
1
1
1
1
1
1
1
1
1
1
1
1
1
1
1
1
1
1
1
1
1
1
1
1
1
1
1
1
1
1
1
1
1
1
1
1
1
1
1
1
1
1
1
1
1
1
1
1
1
1
1
1
1
1
1
1
1
1
1
1
1
1
1
1
1
1
1
1
1
1
1
1
1
1
1
1
1
1
1
1
1
1
1
1
1
1
1
1
1
1
1
1
1
1
1
1
1
1
1
1
1
1
1
1
1
1
1
1
1
1
1
1
1
1
1
1
1
1
1
1
1
1
1
1
1
1
1
1
1
1
1
1
1
1
1
1
1
1
1
1
1
1
1
1
1
1
1
1
1
1
1
1
1
1
1
1
1
1
1
1
1
1
1
1
1
1
1
1
1
1
1
1
1
1
1
1
1
1
1
1
1
1
1
1
1
1
1
1
1
1
1
1
1
1
1
1
1
1
1
1
1
1
1
1
1
1
1
1
1
1
1
1
1
1
1
1
1
1
1
1
1
1
1
1
1
1
1
1
1
1
1
1
1
1
1
1
1
1
1
1
1
1
1
1
1
1
1
1
1
1
1
1
1
1
1
1
1
1
1
1
1
1
1
1
1
1
1
1
1
1
1
1
1
1
1
1
1
1
1
1
1
1
1
1
1
1
1
1
1
1
1
1
1
1
1
1
1
1
1
1
1
1
1
1
1
1
1
1
1
1
1
1
1
1
1
1
1
1
1
1
1
1
1
1
1
1
1
1
1
1
1
1
1
1
1
1
1
1
1
1
1
1
1
1
1
1
1
1
1
1
1
VECTORS v double
-1.0573659 -1.0573659 -1.0573659
-2.1970859 -1.0573659 -1.0573659
-3.3304372 -1.0573659 -1.0573659
-4.4637929 -1.0573659 -1.0573659
-5.5971531 -1.0573659 -1.0573659
-6.7304868 -1.0573659 -1.0573659
-7.8638645 -1.0573659 -1.0573659
-8.9971983 -1.0573659 -1.0573659
-10.130576 -1.0573659 -1.0573659
-11.26391 -1.0573659 -1.0573659
-12.397287 -1.0573659 -1.0573659
-13.530621 -1.0573659 -1.0573659
-14.663999 -1.0573659 -1.0573659
-15.797333 -1.0573659 -1.0573659
-16.93071 -1.0573659 -1.0573659
-18.064044 -1.0573659 -1.0573659
-19.197422 -1.0573659 -1.0573659
-20.330756 -1.0573659 -1.0573659
-21.464133 -1.0573659 -1.0573659
-22.603831 -1.0573659 -1.0573659
-1.0573659 -2.1970859 -1.0573659
-2.1970859 -2.1970859 -1.0573659
-3.3304372 -2.1970859 -1.0573659
-4.4637929 -2.1970859 -1.0573659
-5.5971531 -2.1970859 -1.0573659
-6.7304868 -2.1970859 -1.0573659
-7.8638645 -2.1970859 -1.0573659
-8.9971983 -2.1970859 -1.0573659
-10.130576 -2.1970859 -1.0573659
-11.26391 -2.1970859 -1.0573659
-12.397287 -2.1970859 -1.0573659
-13.530621 -2.1970859 -1.0573659
-14.663999 -2.1970859 -1.0573659
-15.797333 -2.1970859 -1.0573659
-16.93071 -2.1970859 -1.0573659
-18.064044 -2.1970859 -1.0573659
-19.197422 -2.1970859 -1.0573659
-20.330756 -2.1970859 -1.0573659
-21.464133 -2.1970859 -1.0573659
-22.603831 -2.1970859 -1.0573659
-1.0573659 -3.3304372 -1.0573659
-2.1970859 -3.3304372 -1.0573659
-3.3304372 -3.3304372 -1.0573659
-4.4637929 -3.3304372 -1.0573659
-5.5971531 -3.3304372 -1.0573659
-6.7304868 -3.3304372 -1.0573659
-7.8638645 -3.3304372 -1.0573659
-8.9971983 -3.3304372 -1.0573659
-10.130576 -3.3304372 -1.0573659
-11.26391 -3.3304372 -1.0573659
-12.397287 -3.3304372 -1.0573659
-13.530621 -3.3304372 -1.0573659
-14.663999 -3.3304372 -1.0573659
-15.797333 -3.3304372 -1.0573659
-16.93071 -3.3304372 -1.0573659
-18.064044 -3.3304372 -1.0573659
-19.197422 -3.3304372 -1.0573659
-20.330756 -3.3304372 -1.0573659
-21.464133 -3.3304372 -1.0573659
-22.603831 -3.3304372 -1.0573659
-1.0573659 -4.4637929 -1.0573659
-2.1970859 -4.4637929 -1.0573659
-3.3304372 -4.4637929 -1.0573659
-4.4637929 -4.4637929 -1.0573659
-5.5971531 -4.4637929 -1.0573659
-6.7304868 -4.4637929 -1.0573659
-7.8638645 -4.4637929 -1.0573659
-8.9971983 -4.4637929 -1.0573659
-10.130576 -4.4637929 -1.0573659
-11.26391 -4.4637929 -1.0573659
-12.397287 -4.4637929 -1.0573659
-13.530621 -4.4637929 -1.0573659
-14.663999 -4.4637929 -1.0573659
-15.797333 -4.4637929 -1.0573659
-16.93071 -4.4637929 -1.0573659
-18.064044 -4.4637929 -1.0573659
-19.197422 -4.4637929 -1.0573659
-20.330756 -4.4637929 -1.0573659
-21.464133 -4.4637929 -1.0573659
-22.603831 -4.4637929 -1.0573659
-1.0573659 -5.5971531 -1.0573659
-2.1970859 -5.5971531 -1.0573659
-3.3304372 -5.5971531 -1.0573659
-4.4637929 -5.5971531 -1.0573659
-5.5971531 -5.5971531 -1.0573659
-6.7304868 -5.5971531 -1.0573659
-7.8638645 -5.5971531 -1.0573659
-8.9971983 -5.5971531 -1.0573659
-10.130576 -5.5971531 -1.0573659
-11.26391 -5.5971531 -1.0573659
-12.397287 -5.5971531 -1.0573659
-13.530621 -5.5971531 -1.0573659
-14.663999 -5.5971531 -1.0573659
-15.797333 -5.5971531 -1.0573659
-16.93071 -5.5971531 -1.0573659
-18.064044 -5.5971531 -1.0573659
-19.197422 -5.5971531 -1.0573659
-20.330756 -5.5971531 -1.0573659
-21.464133 -5.5971531 -1.0573659
-22.603831 -5.5971531 -1.0573659
-1.0573659 -6.7304868 -1.0573659
-2.1970859 -6.7304868 -1.0573659
-3.3304372 -6.7304868 -1.0573659
-4.4637929 -6.7304868 -1.0573659
-5.5971531 -6.7304868 -1.0573659
-6.7304868 -6.7304868 -1.0573659
-7.8638645 -6.7304868 -1.0573659
-8.9971983 -6.7304868 -1.0573659
-10.130576 -6.7304868 -1.0573659
-11.26391 -6.7304868 -1.0573659
-12.397287 -6.7304868 -1.0573659
-13.530621 -6.7304868 -1.0573659
-14.663999 -6.7304868 -1.0573659
-15.797333 -6.7304868 -1.0573659
-16.93071 -6.7304868 -1.0573659
-18.064044 -6.7304868 -1.0573659
-19.197422 -6.7304868 -1.0573659
-20.330756 -6.7304868 -1.0573659
-21.464133 -6.7304868 -1.0573659
-22.603831 -6.7304868 -1.0573659
-1.0573659 -7.8638645 -1.0573659
-2.1970859 -7.8638645 -1.0573659
-3.3304372 -7.8638645 -1.0573659
-4.4637929 -7.8638645 -1.0573659
-5.5971531 -7.8638645 -1.0573659
-6.7304868 -7.8638645 -1.0573659
-7.8638645 -7.8638645 -1.0573659
-8.9971983 -7.8638645 -1.0573659
-10.130576 -7.8638645 -1.0573659
-11.26391 -7.8638645 -1.0573659
-12.397287 -7.8638645 -1.0573659
-13.530621 -7.8638645 -1.0573659
-14.663999 -7.8638645 -1.0573659
-15.797333 -7.8638645 -1.0573659
-16.93071 -7.8638645 -1.0573659
-18.064044 -7.8638645 -1.0573659
-19.197422 -7.8638645 -1.0573659
-20.330756 -7.8638645 -1.0573659
-21.464133 -7.8638645 -1.0573659
-22.603831 -7.8638645 -1.0573659
-1.0573659 -8.9971983 -1.0573659
-2.1970859 -8.9971983 -1.0573659
-3.3304372 -8.9971983 -1.0573659
-4.4637929 -8.9971983 -1.0573659
-5.5971531 -8.9971983 -1.0573659
-6.7304868 -8.9971983 -1.0573659
-7.8638645 -8.9971983 -1.0573659
-8.9971983 -8.9971983 -1.0573659
-10.130576 -8.9971983 -1.0573659
-11.26391 -8.9971983 -1.0573659
-12.397287 -8.9971983 -1.0573659
-13.530621 -8.9971983 -1.0573659
-14.663999 -8.9971983 -1.0573659
-15.797333 -8.9971983 -1.0573659
-16.93071 -8.9971983 -1.0573659
-18.064044 -8.9971983 -1.0573659
-19.197422 -8.9971983 -1.0573659
-20.330756 -8.9971983 -1.0573659
-21.464133 -8.9971983 -1.0573659
-22.603831 -8.9971983 -1.0573659
-1.0573659 -10.130576 -1.0573659
-2.1970859 -10.130576 -1.0573659
-3.3304372 -10.130576 -1.0573659
-4.4637929 -10.130576 -1.0573659
-5.5971531 -10.130576 -1.0573659
-6.7304868 -10.130576 -1.0573659
-7.8638645 -10.130576 -1.0573659
-8.9971983 -10.130576 -1.0573659
-10.130576 -10.130576 -1.0573659
-11.26391 -10.130576 -1.0573659
-12.397287 -10.130576 -1.0573659
-13.530621 -10.130576 -1.0573659
-14.663999 -10.130576 -1.0573659
-15.797333 -10.130576 -1.0573659
-16.93071 -10.130576 -1.0573659
-18.064044 -10.130576 -1.0573659
-19.197422 -10.130576 -1.0573659
-20.330756 -10.130576 -1.0573659
-21.464133 -10.130576 -1.0573659
-22.603831 -10.130576 -1.0573659
-1.0573659 -11.26391 -1.0573659
-2.1970859 -11.26391 -1.0573659
-3.3304372 -11.26391 -1.0573659
-4.4637929 -11.26391 -1.0573659
-5.5971531 -11.26391 -1.0573659
-6.7304868 -11.26391 -1.0573659
-7.8638645 -11.26391 -1.0573659
-8.9971983 -11.26391 -1.0573659
-10.130576 -11.26391 -1.0573659
-11.26391 -11.26391 -1.0573659
-12.397287 -11.26391 -1.0573659
-13.530621 -11.26391 -1.0573659
-14.663999 -11.26391 -1.0573659
-15.797333 -11.26391 -1.0573659
-16.93071 -11.26391 -1.0573659
-18.064044 -11.26391 -1.0573659
-19.197422 -11.26391 -1.0573659
-20.330756 -11.26391 -1.0573659
-21.464133 -11.26391 -1.0573659
-22.603831 -11.26391 -1.0573659
-1.0573659 -12.397287 -1.0573659
-2.1970859 -12.397287 -1.0573659
-3.3304372 -12.397287 -1.0573659
-4.4637929 -12.397287 -1.0573659
-5.5971531 -12.397287 -1.0573659
-6.7304868 -12.397287 -1.0573659
-7.8638645 -12.397287 -1.0573659
-8.9971983 -12.397287 -1.0573659
-10.130576 -12.397287 -1.0573659
-11.26391 -12.397287 -1.0573659
-12.397287 -12.397287 -1.0573659
-13.530621 -12.397287 -1.0573659
-14.663999 -12.397287 -1.0573659
-15.797333 -12.397287 -1.0573659
-16.93071 -12.397287 -1.0573659
-18.064044 -12.397287 -1.0573659
-19.197422 -12.397287 -1.0573659
-20.330756 -12.397287 -1.0573659
-21.464133 -12.397287 -1.0573659
-22.603831 -12.397287 -1.0573659
-1.0573659 -13.530621 -1.0573659
-2.1970859 -13.530621 -1.0573659
-3.3304372 -13.530621 -1.0573659
-4.4637929 -13.530621 -1.0573659
-5.5971531 -13.530621 -1.0573659
-6.7304868 -13.530621 -1.0573659
-7.8638645 -13.530621 -1.0573659
-8.9971983 -13.530621 -1.0573659
-10.130576 -13.530621 -1.0573659
-11.26391 -13.530621 -1.0573659
-12.397287 -13.530621 -1.0573659
-13.530621 -13.530621 -1.0573659
-14.663999 -13.530621 -1.0573659
-15.797333 -13.530621 -1.0573659
-16.93071 -13.530621 -1.0573659
-18.064044 -13.530621 -1.0573659
-19.197422 -13.530621 -1.0573659
-20.330756 -13.530621 -1.0573659
-21.464133 -13.530621 -1.0573659
-22.603831 -13.530621 -1.0573659
-1.0573659 -14.663999 -1.0573659
-2.1970859 -14.663999 -1.0573659
-3.3304372 -14.663999 -1.0573659
-4.4637929 -14.663999 -1.0573659
-5.5971531 -14.663999 -1.0573659
-6.7304868 -14.663999 -1.0573659
-7.8638645 -14.663999 -1.0573659
-8.9971983 -14.663999 -1.0573659
-10.130576 -14.663999 -1.0573659
-11.26391 -14.663999 -1.0573659
-12.397287 -14.663999 -1.0573659
-13.530621 -14.663999 -1.0573659
-14.663999 -14.663999 -1.0573659
-15.797333 -14.663999 -1.0573659
-16.93071 -14.663999 -1.0573659
-18.064044 -14.663999 -1.0573659
-19.197422 -14.663999 -1.0573659
-20.330756 -14.663999 -1.0573659
-21.464133 -14.663999 -1.0573659
-22.603831 -14.663999 -1.0573659
-1.0573659 -15.797333 -1.0573659
-2.1970859 -15.797333 -1.0573659
-3.3304372 -15.797333 -1.0573659
-4.4637929 -15.797333 -1.0573659
-5.5971531 -15.797333 -1.0573659
-6.7304868 -15.797333 -1.0573659
-7.8638645 -15.797333 -1.0573659
-8.9971983 -15.797333 -1.0573659
-10.130576 -15.797333 -1.0573659
-11.26391 -15.797333 -1.0573659
-12.397287 -15.797333 -1.0573659
-13.530621 -15.797333 -1.0573659
-14.663999 -15.797333 -1.0573659
-15.797333 -15.797333 -1.0573659
-16.93071 -15.797333 -1.0573659
-18.064044 -15.797333 -1.0573659
-19.197422 -15.797333 -1.0573659
-20.330756 -15.797333 -1.0573659
-21.464133 -15.797333 -1.0573659
-22.603831 -15.797333 -1.0573659
-1.0573659 -16.93071 -1.0573659
-2.1970859 -16.93071 -1.0573659
-3.3304372 -16.93071 -1.0573659
-4.4637929 -16.93071 -1.0573659
-5.5971531 -16.93071 -1.0573659
-6.7304868 -16.93071 -1.0573659
-7.8638645 -16.93071 -1.0573659
-8.9971983 -16.93071 -1.0573659
-10.130576 -16.93071 -1.0573659
-11.26391 -16.93071 -1.0573659
-12.397287 -16.93071 -1.0573659
-13.530621 -16.93071 -1.0573659
-14.663999 -16.93071 -1.0573659
-15.797333 -16.93071 -1.0573659
-16.93071 -16.93071 -1.0573659
-18.064044 -16.93071 -1.0573659
-19.197422 -16.93071 -1.0573659
-20.330756 -16.93071 -1.0573659
-21.464133 -16.93071 -1.0573659
-22.603831 -16.93071 -1.0573659
-1.0573659 -18.064044 -1.0573659
-2.1970859 -18.064044 -1.0573659
-3.3304372 -18.064044 -1.0573659
-4.4637929 -18.064044 -1.0573659
-5.5971531 -18.064044 -1.0573659
-6.7304868 -18.064044 -1.0573659
-7.8638645 -18.064044 -1.0573659
-8.9971983 -18.064044 -1.0573659
-10.130576 -18.064044 -1.0573659
-11.26391 -18.064044 -1.0573659
-12.397287 -18.064044 -1.0573659
-13.530621 -18.064044 -1.0573659
-14.663999 -18.064044 -1.0573659
-15.797333 -18.064044 -1.0573659
-16.93071 -18.064044 -1.0573659
-18.064044 -18.064044 -1.0573659
-19.197422 -18.064044 -1.0573659
-20.330756 -18.064044 -1.0573659
-21.464133 -18.064044 -1.0573659
-22.603831 -18.064044 -1.0573659
-1.0573659 -19.197422 -1.0573659
-2.1970859 -19.197422 -1.0573659
-3.3304372 -19.197422 -1.0573659
-4.4637929 -19.197422 -1.0573659
-5.5971531 -19.197422 -1.0573659
-6.7304868 -19.197422 -1.0573659
-7.8638645 -19.197422 -1.0573659
-8.9971983 -19.197422 -1.0573659
-10.130576 -19.197422 -1.0573659
-11.26391 -19.197422 -1.0573659
-12.397287 -19.197422 -1.0573659
-13.530621 -19.197422 -1.0573659
-14.663999 -19.197422 -1.0573659
-15.797333 -19.197422 -1.0573659
-16.93071 -19.197422 -1.0573659
-18.064044 -19.197422 -1.0573659
-19.197422 -19.197422 -1.0573659
-20.330756 -19.197422 -1.0573659
-21.464133 -19.197422 -1.0573659
-22.603831 -19.197422 -1.0573659
-1.0573659 -20.330756 -1.0573659
-2.1970859 -20.330756 -1.0573659
-3.3304372 -20.330756 -1.0573659
-4.4637929 -20.330756 -1.0573659
-5.5971531 -20.330756 -1.0573659
-6.7304868 -20.330756 -1.0573659
-7.8638645 -20.330756 -1.0573659
-8.9971983 -20.330756 -1.0573659
-10.130576 -20.330756 -1.0573659
-11.26391 -20.330756 -1.0573659
-12.397287 -20.330756 -1.0573659
-13.530621 -20.330756 -1.0573659
-14.663999 -20.330756 -1.0573659
-15.797333 -20.330756 -1.0573659
-16.93071 -20.330756 -1.0573659
-18.064044 -20.330756 -1.0573659
-19.197422 -20.330756 -1.0573659
-20.330756 -20.330756 -1.0573659
-21.464133 -20.330756 -1.0573659
-22.603831 -20.330756 -1.0573659
-1.0573659 -21.464133 -1.0573659
-2.1970859 -21.464133 -1.0573659
-3.3304372 -21.464133 -1.0573659
-4.4637929 -21.464133 -1.0573659
-5.5971531 -21.464133 -1.0573659
-6.7304868 -21.464133 -1.0573659
-7.8638645 -21.464133 -1.0573659
-8.9971983 -21.464133 -1.0573659
-10.130576 -21.464133 -1.0573659
-11.26391 -21.464133 -1.0573659
-12.397287 -21.464133 -1.0573659
-13.530621 -21.464133 -1.0573659
-14.663999 -21.464133 -1.0573659
-15.797333 -21.464133 -1.0573659
-16.93071 -21.464133 -1.0573659
-18.064044 -21.464133 -1.0573659
-19.197422 -21.464133 -1.0573659
-20.330756 -21.464133 -1.0573659
-21.464133 -21.464133 -1.0573659
-22.603831 -21.464133 -1.0573659
-1.0573659 -22.603831 -1.0573659
-2.1970859 -22.603831 -1.0573659
-3.3304372 -22.603831 -1.0573659
-4.4637929 -22.603831 -1.0573659
-5.5971531 -22.603831 -1.0573659
-6.7304868 -22.603831 -1.0573659
-7.8638645 -22.603831 -1.0573659
-8.9971983 -22.603831 -1.0573659
-10.130576 -22.603831 -1.0573659
-11.26391 -22.603831 -1.0573659
-12.397287 -22.603831 -1.0573659
-13.530621 -22.603831 -1.0573659
-14.663999 -22.603831 -1.0573659
-15.797333 -22.603831 -1.0573659
-16.93071 -22.603831 -1.0573659
-18.064044 -22.603831 -1.0573659
-19.197422 -22.603831 -1.0573659
-20.330756 -22.603831 -1.0573659
-21.464133 -22.603831 -1.0573659
-22.603831 -22.603831 -1.0573659
-1.0573659 -1.0573659 -2.1970859
-2.1970859 -1.0573659 -2.1970859
-3.3304372 -1.0573659 -2.1970859
-4.4637929 -1.0573659 -2.1970859
-5.5971531 -1.0573659 -2.1970859
-6.7304868 -1.0573659 -2.1970859
-7.8638645 -1.0573659 -2.1970859
-8.9971983 -1.0573659 -2.1970859
-10.130576 -1.0573659 -2.1970859
-11.26391 -1.0573659 -2.1970859
-12.397287 -1.0573659 -2.1970859
-13.530621 -1.0573659 -2.1970859
-14.663999 -1.0573659 -2.1970859
-15.797333 -1.0573659 -2.1970859
-16.93071 -1.0573659 -2.1970859
-18.064044 -1.0573659 -2.1970859
-19.197422 -1.0573659 -2.1970859
-20.330756 -1.0573659 -2.1970859
-21.464133 -1.0573659 -2.1970859
-22.603831 -1.0573659 -2.1970859
-1.0573659 -2.1970859 -2.1970859
-2.1970859 -2.1970859 -2.1970859
-3.3304372 -2.1970859 -2.1970859
-4.4637929 -2.1970859 -2.1970859