# vtk DataFile Version 4.0
hesp visualization file
ASCII
DATASET UNSTRUCTURED_GRID
POINTS 3000 double
0.4919296 0.4919296 0.4919296
3.0609624 0.4919296 0.4919296
5.6306236 0.4919296 0.4919296
8.2002948 0.4919296 0.4919296
10.769976 0.4919296 0.4919296
13.339597 0.4919296 0.4919296
15.909318 0.4919296 0.4919296
18.47894 0.4919296 0.4919296
21.048661 0.4919296 0.4919296
23.618282 0.4919296 0.4919296
26.188003 0.4919296 0.4919296
28.757625 0.4919296 0.4919296
31.327346 0.4919296 0.4919296
33.896967 0.4919296 0.4919296
36.466688 0.4919296 0.4919296
39.036309 0.4919296 0.4919296
41.60603 0.4919296 0.4919296
44.175652 0.4919296 0.4919296
46.745373 0.4919296 0.4919296
49.314356 0.4919296 0.4919296
0.4919296 3.0609624 0.4919296
3.0609624 3.0609624 0.4919296
5.6306236 3.0609624 0.4919296
8.2002948 3.0609624 0.4919296
10.769976 3.0609624 0.4919296
13.339597 3.0609624 0.4919296
15.909318 3.0609624 0.4919296
18.47894 3.0609624 0.4919296
21.048661 3.0609624 0.4919296
23.618282 3.0609624 0.4919296
26.188003 3.0609624 0.4919296
28.757625 3.0609624 0.4919296
31.327346 3.0609624 0.4919296
33.896967 3.0609624 0.4919296
36.466688 3.0609624 0.4919296
39.036309 3.0609624 0.4919296
41.60603 3.0609624 0.4919296
44.175652 3.0609624 0.4919296
46.745373 3.0609624 0.4919296
49.314356 3.0609624 0.4919296
0.4919296 5.6306236 0.4919296
3.0609624 5.6306236 0.4919296
5.6306236 5.6306236 0.4919296
8.2002948 5.6306236 0.4919296
10.769976 5.6306236 0.4919296
13.339597 5.6306236 0.4919296
15.909318 5.6306236 0.4919296
18.47894 5.6306236 0.4919296
21.048661 5.6306236 0.4919296
23.618282 5.6306236 0.4919296
26.188003 5.6306236 0.4919296
28.757625 5.6306236 0.4919296
31.327346 5.6306236 0.4919296
33.896967 5.6306236 0.4919296
36.466688 5.6306236 0.4919296
39.036309 5.6306236 0.4919296
41.60603 5.6306236 0.4919296
44.175652 5.6306236 0.4919296
46.745373 5.6306236 0.4919296
49.314356 5.6306236 0.4919296
0.4919296 8.2002948 0.4919296
3.0609624 8.2002948 0.4919296
5.6306236 8.2002948 0.4919296
8.2002948 8.2002948 0.4919296
10.769976 8.2002948 0.4919296
13.339597 8.2002948 0.4919296
15.909318 8.2002948 0.4919296
18.47894 8.2002948 0.4919296
21.048661 8.2002948 0.4919296
23.618282 8.2002948 0.4919296
26.188003 8.2002948 0.4919296
28.757625 8.2002948 0.4919296
31.327346 8.2002948 0.4919296
33.896967 8.2002948 0.4919296
36.466688 8.2002948 0.4919296
39.036309 8.2002948 0.4919296
41.60603 8.2002948 0.4919296
44.175652 8.2002948 0.4919296
46.745373 8.2002948 0.4919296
49.314356 8.2002948 0.4919296
0.4919296 10.769976 0.4919296
3.0609624 10.769976 0.4919296
5.6306236 10.769976 0.4919296
8.2002948 10.769976 0.4919296
10.769976 10.769976 0.4919296
13.339597 10.769976 0.4919296
15.909318 10.769976 0.4919296
18.47894 10.769976 0.4919296
21.048661 10.769976 0.4919296
23.618282 10.769976 0.4919296
26.188003 10.769976 0.4919296
28.757625 10.769976 0.4919296
31.327346 10.769976 0.4919296
33.896967 10.769976 0.4919296
36.466688 10.769976 0.4919296
39.036309 10.769976 0.4919296
41.60603 10.769976 0.4919296
44.175652 10.769976 0.4919296
46.745373 10.769976 0.4919296
49.314356 10.769976 0.4919296
0.4919296 13.339597 0.4919296
3.0609624 13.339597 0.4919296
5.6306236 13.339597 0.4919296
8.2002948 13.339597 0.4919296
10.769976 13.339597 0.4919296
13.339597 13.339597 0.4919296
15.909318 13.339597 0.4919296
18.47894 13.339597 0.4919296
21.048661 13.339597 0.4919296
23.618282 13.339597 0.4919296
26.188003 13.339597 0.4919296
28.757625 13.339597 0.4919296
31.327346 13.339597 0.4919296
33.896967 13.339597 0.4919296
36.466688 13.339597 0.4919296
39.036309 13.339597 0.4919296
41.60603 13.339597 0.4919296
44.175652 13.339597 0.4919296
46.745373 13.339597 0.4919296
49.314356 13.339597 0.4919296
0.4919296 15.909318 0.4919296
3.0609624 15.909318 0.4919296
5.6306236 15.909318 0.4919296
8.2002948 15.909318 0.4919296
10.769976 15.909318 0.4919296
13.339597 15.909318 0.4919296
15.909318 15.909318 0.4919296
18.47894 15.909318 0.4919296
21.048661 15.909318 0.4919296
23.618282 15.909318 0.4919296
26.188003 15.909318 0.4919296
28.757625 15.909318 0.4919296
31.327346 15.909318 0.4919296
33.896967 15.909318 0.4919296
36.466688 15.909318 0.4919296
39.036309 15.909318 0.4919296
41.60603 15.909318 0.4919296
44.175652 15.909318 0.4919296
46.745373 15.909318 0.4919296
49.314356 15.909318 0.4919296
0.4919296 18.47894 0.4919296
3.0609624 18.47894 0.4919296
5.6306236 18.47894 0.4919296
8.2002948 18.47894 0.4919296
10.769976 18.47894 0.4919296
13.339597 18.47894 0.4919296
15.909318 18.47894 0.4919296
18.47894 18.47894 0.4919296
21.048661 18.47894 0.4919296
23.618282 18.47894 0.4919296
26.188003 18.47894 0.4919296
28.757625 18.47894 0.4919296
31.327346 18.47894 0.4919296
33.896967 18.47894 0.4919296
36.466688 18.47894 0.4919296
39.036309 18.47894 0.4919296
41.60603 18.47894 0.4919296
44.175652 18.47894 0.4919296
46.745373 18.47894 0.4919296
49.314356 18.47894 0.4919296
0.4919296 21.048661 0.4919296
3.0609624 21.048661 0.4919296
5.6306236 21.048661 0.4919296
8.2002948 21.048661 0.4919296
10.769976 21.048661 0.4919296
13.339597 21.048661 0.4919296
15.909318 21.048661 0.4919296
18.47894 21.048661 0.4919296
21.048661 21.048661 0.4919296
23.618282 21.048661 0.4919296
26.188003 21.048661 0.4919296
28.757625 21.048661 0.4919296
31.327346 21.048661 0.4919296
33.896967 21.048661 0.4919296
36.466688 21.048661 0.4919296
39.036309 21.048661 0.4919296
41.60603 21.048661 0.4919296
44.175652 21.048661 0.4919296
46.745373 21.048661 0.4919296
49.314356 21.048661 0.4919296
0.4919296 23.618282 0.4919296
3.0609624 23.618282 0.4919296
5.6306236 23.618282 0.4919296
8.2002948 23.618282 0.4919296
10.769976 23.618282 0.4919296
13.339597 23.618282 0.4919296
15.909318 23.618282 0.4919296
18.47894 23.618282 0.4919296
21.048661 23.618282 0.4919296
23.618282 23.618282 0.4919296
26.188003 23.618282 0.4919296
28.757625 23.618282 0.4919296
31.327346 23.618282 0.4919296
33.896967 23.618282 0.4919296
36.466688 23.618282 0.4919296
39.036309 23.618282 0.4919296
41.60603 23.618282 0.4919296
44.175652 23.618282 0.4919296
46.745373 23.618282 0.4919296
49.314356 23.618282 0.4919296
0.4919296 26.188003 0.4919296
3.0609624 26.188003 0.4919296
5.6306236 26.188003 0.4919296
8.2002948 26.188003 0.4919296
10.769976 26.188003 0.4919296
13.339597 26.188003 0.4919296
15.909318 26.188003 0.4919296
18.47894 26.188003 0.4919296
21.048661 26.188003 0.4919296
23.618282 26.188003 0.4919296
26.188003 26.188003 0.4919296
28.757625 26.188003 0.4919296
31.327346 26.188003 0.4919296
33.896967 26.188003 0.4919296
36.466688 26.188003 0.4919296
39.036309 26.188003 0.4919296
41.60603 26.188003 0.4919296
44.175652 26.188003 0.4919296
46.745373 26.188003 0.4919296
49.314356 26.188003 0.4919296
0.4919296 28.757625 0.4919296
3.0609624 28.757625 0.4919296
5.6306236 28.757625 0.4919296
8.2002948 28.757625 0.4919296
10.769976 28.757625 0.4919296
13.339597 28.757625 0.4919296
15.909318 28.757625 0.4919296
18.47894 28.757625 0.4919296
21.048661 28.757625 0.4919296
23.618282 28.757625 0.4919296
26.188003 28.757625 0.4919296
28.757625 28.757625 0.4919296
31.327346 28.757625 0.4919296
33.896967 28.757625 0.4919296
36.466688 28.757625 0.4919296
39.036309 28.757625 0.4919296
41.60603 28.757625 0.4919296
44.175652 28.757625 0.4919296
46.745373 28.757625 0.4919296
49.314356 28.757625 0.4919296
0.4919296 31.327346 0.4919296
3.0609624 31.327346 0.4919296
5.6306236 31.327346 0.4919296
8.2002948 31.327346 0.4919296
10.769976 31.327346 0.4919296
13.339597 31.327346 0.4919296
15.909318 31.327346 0.4919296
18.47894 31.327346 0.4919296
21.048661 31.327346 0.4919296
23.618282 31.327346 0.4919296
26.188003 31.327346 0.4919296
28.757625 31.327346 0.4919296
31.327346 31.327346 0.4919296
33.896967 31.327346 0.4919296
36.466688 31.327346 0.4919296
39.036309 31.327346 0.4919296
41.60603 31.327346 0.4919296
44.175652 31.327346 0.4919296
46.745373 31.327346 0.4919296
49.314356 31.327346 0.4919296
0.4919296 33.896967 0.4919296
3.0609624 33.896967 0.4919296
5.6306236 33.896967 0.4919296
8.2002948 33.896967 0.4919296
10.769976 33.896967 0.4919296
13.339597 33.896967 0.4919296
15.909318 33.896967 0.4919296
18.47894 33.896967 0.4919296
21.048661 33.896967 0.4919296
23.618282 33.896967 0.4919296
26.188003 33.896967 0.4919296
28.757625 33.896967 0.4919296
31.327346 33.896967 0.4919296
33.896967 33.896967 0.4919296
36.466688 33.896967 0.4919296
39.036309 33.896967 0.4919296
41.60603 33.896967 0.4919296
44.175652 33.896967 0.4919296
46.745373 33.896967 0.4919296
49.314356 33.896967 0.4919296
0.4919296 36.466688 0.4919296
3.0609624 36.466688 0.4919296
5.6306236 36.466688 0.4919296
8.2002948 36.466688 0.4919296
10.769976 36.466688 0.4919296
13.339597 36.466688 0.4919296
15.909318 36.466688 0.4919296
18.47894 36.466688 0.4919296
21.048661 36.466688 0.4919296
23.618282 36.466688 0.4919296
26.188003 36.466688 0.4919296
28.757625 36.466688 0.4919296
31.327346 36.466688 0.4919296
33.896967 36.466688 0.4919296
36.466688 36.466688 0.4919296
39.036309 36.466688 0.4919296
41.60603 36.466688 0.4919296
44.175652 36.466688 0.4919296
46.745373 36.466688 0.4919296
49.314356 36.466688 0.4919296
0.4919296 39.036309 0.4919296
3.0609624 39.036309 0.4919296
5.6306236 39.036309 0.4919296
8.2002948 39.036309 0.4919296
10.769976 39.036309 0.4919296
13.339597 39.036309 0.4919296
15.909318 39.036309 0.4919296
18.47894 39.036309 0.4919296
21.048661 39.036309 0.4919296
23.618282 39.036309 0.4919296
26.188003 39.036309 0.4919296
28.757625 39.036309 0.4919296
31.327346 39.036309 0.4919296
33.896967 39.036309 0.4919296
36.466688 39.036309 0.4919296
39.036309 39.036309 0.4919296
41.60603 39.036309 0.4919296
44.175652 39.036309 0.4919296
46.745373 39.036309 0.4919296
49.314356 39.036309 0.4919296
0.4919296 41.60603 0.4919296
3.0609624 41.60603 0.4919296
5.6306236 41.60603 0.4919296
8.2002948 41.60603 0.4919296
10.769976 41.60603 0.4919296
13.339597 41.60603 0.4919296
15.909318 41.60603 0.4919296
18.47894 41.60603 0.4919296
21.048661 41.60603 0.4919296
23.618282 41.60603 0.4919296
26.188003 41.60603 0.4919296
28.757625 41.60603 0.4919296
[...]
POINT_DATA 3000
SCALARS m double
LOOKUP_TABLE default
1
1
1
1
1
1
1
1
1
1
1
1
1
1
1
1
1
1
1
1
1
1
1
1
1
1
1
1
1
1
1
1
1
1
1
1
1
1
1
1
1
1
1
1
1
1
1
1
1
1
1
1
1
1
1
1
1
1
1
1
1
1
1
1
1
1
1
1
1
1
1
1
1
1
1
1
1
1
1
1
1
1
1
1
1
1
1
1
1
1
1
1
1
1
1
1
1
1
1
1
1
1
1
1
1
1
1
1
1
1
1
1
1
1
1
1
1
1
1
1
1
1
1
1
1
1
1
1
1
1
1
1
1
1
1
1
1
1
1
1
1
1
1
1
1
1
1
1
1
1
1
1
1
1
1
1
1
1
1
1
1
1
1
1
1
1
1
1
1
1
1
1
1
1
1
1
1
1
1
1
1
1
1
1
1
1
1
1
1
1
1
1
1
1
1
1
1
1
1
1
1
1
1
1
1
1
1
1
1
1
1
1
1
1
1
1
1
1
1
1
1
1
1
1
1
1
1
1
1
1
1
1
1
1
1
1
1
1
1
1
1
1
1
1
1
1
1
1
1
1
1
1
1
1
1
1
1
1
1
1
1
1
1
1
1
1
1
1
1
1
1
1
1
1
1
1
1
1
1
1
1
1
1
1
1
1
1
1
1
1
1
1
1
1
1
1
1
1
1
1
1
1
1
1
1
1
1
1
1
1
1
1
1
1
1
1
1
1
1
1
1
1
1
1
1
1
1
1
1
1
1
1
1
1
1
1
1
1
1
1
1
1
1
1
1
1
1
1
1
1
1
1
1
1
1
1
1
1
1
1
1
1
1
1
1
1
1
1
1
1
1
1
1
1
1
1
1
1
1
1
1
1
1
1
1
1
1
1
1
1
1
1
1
1
1
1
1
1
1
1
1
1
1
1
1
1
1
1
1
1
1
1
1
1
1
1
1
1
1
1
1
1
1
1
1
1
1
1
1
1
1
1
1
1
1
1
1
1
1
1
1
1
1
1
1
1
1
1
1
1
1
1
1
1
1
1
1
1
1
1
1
1
1
1
1
1
1
1
1
1
1
1
1
1
1
1
1
1
1
1
1
1
1
1
1
1
1
1
1
1
1
1
1
1
1
1
1
1
1
1
1
1
1
1
1
1
1
1
1
1
1
1
1
1
1
1
1
1
1
1
1
1
1
1
1
1
1
1
1
1
1
1
1
1
1
1
1
1
1
1
1
1
1
1
1
1
1
1
1
1
1
1
1
1
1
1
1
1
1
1
1
1
1
1
1
1
1
1
1
1
1
1
1
1
1
1
1
1
1
1
1
1
1
1
1
1
1
1
1
1
1
1
1
1
1
1
1
1
1
1
1
1
1
1
1
1
1
1
1
1
1
1
1
1
1
1
1
1
1
1
1
1
1
1
1
1
1
1
1
1
1
1
1
1
1
1
1
1
1
1
1
1
1
1
1
1
1
1
1
1
1
1
1
1
1
1
1
1
1
1
1
1
1
1
1
1
1
1
1
1
1
1
1
1
1
1
1
1
1
1
1
1
1
1
1
1
1
1
1
1
1
1
1
1
1
1
1
1
1
1
1
1
1
1
1
1
1
1
1
1
1
1
1
1
1
1
1
1
1
1
1
1
1
1
1
1
1
1
1
1
1
1
1
1
1
1
1
1
1
1
1
1
1
1
1
1
1
1
1
1
1
1
1
1
1
1
1
1
1
1
1
1
1
1
1
1
1
1
1
1
1
1
1
1
1
1
1
1
1
1
1
1
1
1
1
1
1
1
1
1
1
1
1
1
1
1
1
1
1
1
1
1
1
1
1
1
1
1
1
1
1
1
1
1
1
1
1
1
1
1
1
1
1
1
1
1
1
1
1
1
1
1
1
1
1
1
1
1
1
1
1
1
1
1
1
1
1
1
1
1
1
1
1
1
1
1
1
1
1
1
1
1
1
1
1
1
1
1
1
1
1
1
1
1
1
1
1
1
1
1
1
1
1
1
1
1
1
1
1
1
1
1
1
1
1
1
1
1
1
1
1
1
1
1
1
1
1
1
1
1
1
1
1
1
1
1
1
1
1
1
1
1
1
1
1
1
1
1
1
1
1
1
1
1
1
1
1
1
1
1
1
1
1
1
1
1
1
1
1
1
1
1
1
1
1
1
1
1
1
1
1
1
1
1
1
1
1
1
1
1
1
1
1
1
1
1
1
1
1
1
1
1
1
1
1
1
1
1
1
1
1
1
1
1
1
1
1
1
1
1
1
1
1
1
1
1
1
1
1
1
1
1
1
1
1
1
1
1
1
1
1
1
1
1
1
1
1
1
1
1
1
1
1
1
1
1
1
1
1
1
1
1
1
1
1
1
1
1
1
1
1
1
1
1
1
1
1
1
1
1
1
1
1
1
1
1
1
1
1
1
1
1
1
1
1
1
1
1
1
1
1
1
1
1
1
1
1
1
1
1
1
1
1
1
1
1
1
1
1
1
1
1
1
1
1
1
1
1
1
1
1
1
1
1
1
1
1
1
1
1
1
1
1
1
1
1
1
1
1
1
1
1
1
1
1
1
1
1
1
1
1
1
1
1
1
1
1
1
1
1
1
1
1
1
1
1
1
1
1
1
1
1
1
1
1
1
1
1
1
1
1
1
1
1
1
1
1
1
1
1
1
1
1
1
1
1
1
1
1
1
1
1
1
1
1
1
1
1
1
1
1
1
1
1
1
1
1
1
1
1
1
1
1
1
1
1
1
1
1
1
1
1
1
1
1
1
1
1
1
1
1
1
1
1
1
1
1
1
1
1
1
1
1
1
1
1
1
1
1
1
1
1
1
1
1
1
1
1
1
1
1
1
1
1
1
1
1
1
1
1
1
1
1
1
1
1
1
1
1
1
1
1
1
1
1
1
1
1
1
1
1
1
1
1
1
1
1
1
1
1
1
1
1
1
1
1
1
1
1
1
1
1
1
1
1
1
1
1
1
1
1
1
1
1
1
1
1
1
1
1
1
1
1
1
1
1
1
1
1
1
1
1
1
1
1
1
1
1
1
1
1
1
1
1
1
1
1
1
1
1
1
1
1
1
1
1
1
1
1
1
1
1
1
1
1
1
1
1
1
1
1
1
1
1
1
1
1
1
1
1
1
1
1
1
1
1
1
1
1
1
1
1
1
1
1
1
1
1
1
1
1
1
1
1
1
1
1
1
1
1
1
1
1
1
1
1
1
1
1
1
1
1
1
1
1
1
1
1
1
1
1
1
1
1
1
1
1
1
1
1
1
1
1
1
1
1
1
1
1
1
1
1
1
1
1
1
1
1
1
1
1
1
1
1
1
1
1
1
1
1
1
1
1
1
1
1
1
1
1
1
1
1
1
1
1
1
1
1
1
1
1
1
1
1
1
1
1
1
1
1
1
1
1
1
1
1
1
1
1
1
1
1
1
1
1
1
1
1
1
1
1
1
1
1
1
1
1
1
1
1
1
1
1
1
1
1
1
1
1
1
1
1
1
1
1
1
1
1
1
1
1
1
1
1
1
1
1
1
1
1
1
1
1
1
1
1
1
1
1
1
1
1
1
1
1
1
1
1
1
1
1
1
1
1
1
1
1
1
1
1
1
1
1
1
1
1
1
1
1
1
1
1
1
1
1
1
1
1
1
1
1
1
1
1
1
1
1
1
1
1
1
1
1
1
1
1
1
1
1
1
1
1
1
1
1
1
1
1
1
1
1
1
1
1
1
1
1
1
1
1
1
1
1
1
1
1
1
1
1
1
1
1
1
1
1
1
1
1
1
1
1
1
1
1
1
1
1
1
1
1
1
1
1
1
1
1
1
1
1
1
1
1
1
1
1
1
1
1
1
1
1
1
1
1
1
1
1
1
1
1
1
1
1
1
1
1
1
1
1
1
1
1
1
1
1
1
1
1
1
1
1
1
1
1
1
1
1
1
1
1
1
1
1
1
1
1
1
1
1
1
1
1
1
1
1
1
1
1
1
1
1
1
1
1
1
1
1
1
1
1
1
1
1
1
1
1
1
1
1
1
1
1
1
1
1
1
1
1
1
1
1
1
1
1
1
1
1
1
1
1
1
1
1
1
1
1
1
1
1
1
1
1
1
1
1
1
1
1
1
1
1
1
1
1
1
1
1
1
1
1
1
1
1
1
1
1
1
1
1
1
1
1
1
1
1
1
1
1
1
1
1
1
1
1
1
1
1
1
1
1
1
1
1
1
1
1
1
1
1
1
1
1
1
1
1
1
1
1
1
1
1
1
1
1
1
1
1
1
1
1
1
1
1
1
1
1
1
1
1
1
1
1
1
1
1
1
1
1
1
1
1
1
1
1
1
1
1
1
1
1
1
1
1
1
1
1
1
1
1
1
1
1
1
1
1
1
1
1
1
1
1
1
1
1
1
1
1
1
1
1
1
1
1
1
1
1
1
1
1
1
1
1
1
1
1
1
1
1
1
1
1
1
1
1
1
1
1
1
1
1
1
1
1
1
1
1
1
1
1
1
1
1
1
1
1
1
1
1
1
1
1
1
1
1
1
1
1
1
1
1
1
1
1
1
1
1
1
1
1
1
1
1
1
1
1
1
1
1
1
1
1
1
1
1
1
1
1
1
1
1
1
1
1
1
1
1
1
1
1
1
1
1
1
1
1
1
1
1
1
1
1
1
1
1
1
1
1
1
1
1
1
1
1
1
1
1
1
1
1
1
1
1
1
1
1
1
1
1
1
1
1
1
1
1
1
1
1
1
1
1
1
1
1
1
1
1
1
1
1
1
1
1
1
1
1
1
1
1
1
1
1
1
1
1
1
1
1
1
1
1
1
1
1
1
1
1
1
1
1
1
1
1
1
1
1
1
1
1
1
1
1
1
1
1
1
1
1
1
1
1
1
1
1
1
1
1
1
1
1
1
1
1
1
1
1
1
1
1
1
1
1
1
1
1
1
1
1
1
1
1
1
1
1
1
1
1
1
1
1
1
1
1
1
1
1
1
1
1
1
1
1
1
1
1
1
1
1
1
1
1
1
1
1
1
1
1
1
1
1
1
1
1
1
1
1
1
1
1
1
1
1
1
1
1
1
1
1
1
1
1
1
1
1
1
1
1
1
1
1
1
1
1
1
1
1
1
1
1
1
1
1
1
1
1
1
1
1
1
1
1
1
1
1
1
1
1
1
1
1
1
1
1
1
1
1
1
1
1
1
1
1
1
1
1
1
1
1
1
1
1
1
1
1
1
1
1
1
1
1
1
1
1
1
1
1
1
1
1
1
1
1
1
1
1
1
1
1
1
1
1
1
1
1
1
1
1
1
1
1
1
1
1
1
1
1
1
1
1
1
1
1
1
1
1
1
1
1
1
1
1
1
1
1
1
1
1
1
1
1
1
1
1
1
1
1
1
1
1
1
1
1
1
1
1
1
1
1
1
1
1
1
1
1
1
1
1
1
1
1
1
1
1
1
1
1
1
1
1
1
1
1
1
1
1
1
1
1
1
1
1
1
1
1
1
1
1
1
1
1
1
1
1
1
1
1
1
1
1
1
1
1
1
1
1
1
1
1
1
1
1
1
1
1
1
1
1
1
1
1
1
1
1
1
1
1
1
1
1
1
1
1
1
1
1
1
1
1
1
1
1
1
1
1
1
1
1
1
1
1
1
1
1
1
1
1
1
1
1
1
1
1
1
1
1
1
1
1
1
1
1
1
1
1
1
1
1
1
1
1
1
1
1
1
1
1
1
1
1
1
1
1
1
1
1
1
1
1
1
1
1
1
1
1
1
1
1
1
1
1
1
1
1
1
1
1
1
1
1
1
1
1
1
1
1
1
1
1
1
1
1
1
1
1
1
1
1
1
1
1
1
1
1
1
1
1
1
1
1
1
1
1
1
1
1
1
1
1
1
1
1
1
1
1
1
1
1
1
1
1
1
1
1
1
1
1
1
1
1
1
1
1
1
1
1
1
1
1
1
1
1
1
1
1
1
1
1
1
1
1
1
1
1
1
1
1
1
1
1
1
1
1
1
1
1
1
1
1
1
1
1
1
1
1
1
1
1
1
1
1
1
1
1
1
1
1
1
1
1
1
1
1
1
1
1
1
1
1
1
1
1
1
1
1
1
1
1
1
1
1
1
1
1
1
1
1
1
1
1
1
1
1
1
1
1
1
1
1
1
1
1
1
1
1
1
1
1
1
1
1
1
1
1
1
1
1
1
1
1
1
1
1
1
1
1
1
1
1
1
1
1
1
1
1
1
1
1
1
1
1
1
1
1
1
1
1
1
1
1
1
1
1
1
1
1
1
1
1
1
1
1
1
1
1
1
1
1
1
1
1
1
1
1
1
1
1
1
1
1
1
1
1
1
1
1
1
1
1
1
1
1
1
1
1
1
1
1
1
1
1
1
1
1
1
1
1
1
1
1
1
1
1
1
1
1
1
1
1
1
1
1
1
1
1
1
1
1
1
1
1
1
1
1
1
1
1
1
1
1
1
1
1
1
1
1
1
1
1
1
1
1
1
1
1
1
1
1
1
1
1
1
1
1
1
1
1
1
1
1
1
1
1
1
1
1
1
1
1
1
1
1
1
1
1
1
1
1
1
1
1
1
1
1
1
1
1
1
1
1
1
1
1
1
1
1
1
1
1
1
1
1
1
1
1
1
1
1
1
1
1
1
1
1
1
1
1
1
1
1
1
1
1
1
1
1
1
1
1
1
1
1
1
1
1
1
1
1
1
1
1
1
1
1
1
1
1
1
1
1
1
1
VECTORS v double
-0.19842331 -0.19842331 -0.19842331
-0.42444494 -0.19842331 -0.19842331
-0.64339188 -0.19842331 -0.19842331
-0.86233966 -0.19842331 -0.19842331
-1.0812883 -0.19842331 -0.19842331
-1.3002318 -0.19842331 -0.19842331
-1.5191839 -0.19842331 -0.19842331
-1.7381274 -0.19842331 -0.19842331
-1.9570795 -0.19842331 -0.19842331
-2.176023 -0.19842331 -0.19842331
-2.394975 -0.19842331 -0.19842331
-2.6139186 -0.19842331 -0.19842331
-2.8328706 -0.19842331 -0.19842331
-3.0518142 -0.19842331 -0.19842331
-3.2707662 -0.19842331 -0.19842331
-3.4897097 -0.19842331 -0.19842331
-3.7086618 -0.19842331 -0.19842331
-3.9276053 -0.19842331 -0.19842331
-4.1465574 -0.19842331 -0.19842331
-4.3725747 -0.19842331 -0.19842331
-0.19842331 -0.42444494 -0.19842331
-0.42444494 -0.42444494 -0.19842331
-0.64339188 -0.42444494 -0.19842331
-0.86233966 -0.42444494 -0.19842331
-1.0812883 -0.42444494 -0.19842331
-1.3002318 -0.42444494 -0.19842331
-1.5191839 -0.42444494 -0.19842331
-1.7381274 -0.42444494 -0.19842331
-1.9570795 -0.42444494 -0.19842331
-2.176023 -0.42444494 -0.19842331
-2.394975 -0.42444494 -0.19842331
-2.6139186 -0.42444494 -0.19842331
-2.8328706 -0.42444494 -0.19842331
-3.0518142 -0.42444494 -0.19842331
-3.2707662 -0.42444494 -0.19842331
-3.4897097 -0.42444494 -0.19842331
-3.7086618 -0.42444494 -0.19842331
-3.9276053 -0.42444494 -0.19842331
-4.1465574 -0.42444494 -0.19842331
-4.3725747 -0.42444494 -0.19842331
-0.19842331 -0.64339188 -0.19842331
-0.42444494 -0.64339188 -0.19842331
-0.64339188 -0.64339188 -0.19842331
-0.86233966 -0.64339188 -0.19842331
-1.0812883 -0.64339188 -0.19842331
-1.3002318 -0.64339188 -0.19842331
-1.5191839 -0.64339188 -0.19842331
-1.7381274 -0.64339188 -0.19842331
-1.9570795 -0.64339188 -0.19842331
-2.176023 -0.64339188 -0.19842331
-2.394975 -0.64339188 -0.19842331
-2.6139186 -0.64339188 -0.19842331
-2.8328706 -0.64339188 -0.19842331
-3.0518142 -0.64339188 -0.19842331
-3.2707662 -0.64339188 -0.19842331
-3.4897097 -0.64339188 -0.19842331
-3.7086618 -0.64339188 -0.19842331
-3.9276053 -0.64339188 -0.19842331
-4.1465574 -0.64339188 -0.19842331
-4.3725747 -0.64339188 -0.19842331
-0.19842331 -0.86233966 -0.19842331
-0.42444494 -0.86233966 -0.19842331
-0.64339188 -0.86233966 -0.19842331
-0.86233966 -0.86233966 -0.19842331
-1.0812883 -0.86233966 -0.19842331
-1.3002318 -0.86233966 -0.19842331
-1.5191839 -0.86233966 -0.19842331
-1.7381274 -0.86233966 -0.19842331
-1.9570795 -0.86233966 -0.19842331
-2.176023 -0.86233966 -0.19842331
-2.394975 -0.86233966 -0.19842331
-2.6139186 -0.86233966 -0.19842331
-2.8328706 -0.86233966 -0.19842331
-3.0518142 -0.86233966 -0.19842331
-3.2707662 -0.86233966 -0.19842331
-3.4897097 -0.86233966 -0.19842331
-3.7086618 -0.86233966 -0.19842331
-3.9276053 -0.86233966 -0.19842331
-4.1465574 -0.86233966 -0.19842331
-4.3725747 -0.86233966 -0.19842331
-0.19842331 -1.0812883 -0.19842331
-0.42444494 -1.0812883 -0.19842331
-0.64339188 -1.0812883 -0.19842331
-0.86233966 -1.0812883 -0.19842331
-1.0812883 -1.0812883 -0.19842331
-1.3002318 -1.0812883 -0.19842331
-1.5191839 -1.0812883 -0.19842331
-1.7381274 -1.0812883 -0.19842331
-1.9570795 -1.0812883 -0.19842331
-2.176023 -1.0812883 -0.19842331
-2.394975 -1.0812883 -0.19842331
-2.6139186 -1.0812883 -0.19842331
-2.8328706 -1.0812883 -0.19842331
-3.0518142 -1.0812883 -0.19842331
-3.2707662 -1.0812883 -0.19842331
-3.4897097 -1.0812883 -0.19842331
-3.7086618 -1.0812883 -0.19842331
-3.9276053 -1.0812883 -0.19842331
-4.1465574 -1.0812883 -0.19842331
-4.3725747 -1.0812883 -0.19842331
-0.19842331 -1.3002318 -0.19842331
-0.42444494 -1.3002318 -0.19842331
-0.64339188 -1.3002318 -0.19842331
-0.86233966 -1.3002318 -0.19842331
-1.0812883 -1.3002318 -0.19842331
-1.3002318 -1.3002318 -0.19842331
-1.5191839 -1.3002318 -0.19842331
-1.7381274 -1.3002318 -0.19842331
-1.9570795 -1.3002318 -0.19842331
-2.176023 -1.3002318 -0.19842331
-2.394975 -1.3002318 -0.19842331
-2.6139186 -1.3002318 -0.19842331
-2.8328706 -1.3002318 -0.19842331
-3.0518142 -1.3002318 -0.19842331
-3.2707662 -1.3002318 -0.19842331
-3.4897097 -1.3002318 -0.19842331
-3.7086618 -1.3002318 -0.19842331
-3.9276053 -1.3002318 -0.19842331
-4.1465574 -1.3002318 -0.19842331
-4.3725747 -1.3002318 -0.19842331
-0.19842331 -1.5191839 -0.19842331
-0.42444494 -1.5191839 -0.19842331
-0.64339188 -1.5191839 -0.19842331
-0.86233966 -1.5191839 -0.19842331
-1.0812883 -1.5191839 -0.19842331
-1.3002318 -1.5191839 -0.19842331
-1.5191839 -1.5191839 -0.19842331
-1.7381274 -1.5191839 -0.19842331
-1.9570795 -1.5191839 -0.19842331
-2.176023 -1.5191839 -0.19842331
-2.394975 -1.5191839 -0.19842331
-2.6139186 -1.5191839 -0.19842331
-2.8328706 -1.5191839 -0.19842331
-3.0518142 -1.5191839 -0.19842331
-3.2707662 -1.5191839 -0.19842331
-3.4897097 -1.5191839 -0.19842331
-3.7086618 -1.5191839 -0.19842331
-3.9276053 -1.5191839 -0.19842331
-4.1465574 -1.5191839 -0.19842331
-4.3725747 -1.5191839 -0.19842331
-0.19842331 -1.7381274 -0.19842331
-0.42444494 -1.7381274 -0.19842331
-0.64339188 -1.7381274 -0.19842331
-0.86233966 -1.7381274 -0.19842331
-1.0812883 -1.7381274 -0.19842331
-1.3002318 -1.7381274 -0.19842331
-1.5191839 -1.7381274 -0.19842331
-1.7381274 -1.7381274 -0.19842331
-1.9570795 -1.7381274 -0.19842331
-2.176023 -1.7381274 -0.19842331
-2.394975 -1.7381274 -0.19842331
-2.6139186 -1.7381274 -0.19842331
-2.8328706 -1.7381274 -0.19842331
-3.0518142 -1.7381274 -0.19842331
-3.2707662 -1.7381274 -0.19842331
-3.4897097 -1.7381274 -0.19842331
-3.7086618 -1.7381274 -0.19842331
-3.9276053 -1.7381274 -0.19842331
-4.1465574 -1.7381274 -0.19842331
-4.3725747 -1.7381274 -0.19842331
-0.19842331 -1.9570795 -0.19842331
-0.42444494 -1.9570795 -0.19842331
-0.64339188 -1.9570795 -0.19842331
-0.86233966 -1.9570795 -0.19842331
-1.0812883 -1.9570795 -0.19842331
-1.3002318 -1.9570795 -0.19842331
-1.5191839 -1.9570795 -0.19842331
-1.7381274 -1.9570795 -0.19842331
-1.9570795 -1.9570795 -0.19842331
-2.176023 -1.9570795 -0.19842331
-2.394975 -1.9570795 -0.19842331
-2.6139186 -1.9570795 -0.19842331
-2.8328706 -1.9570795 -0.19842331
-3.0518142 -1.9570795 -0.19842331
-3.2707662 -1.9570795 -0.19842331
-3.4897097 -1.9570795 -0.19842331
-3.7086618 -1.9570795 -0.19842331
-3.9276053 -1.9570795 -0.19842331
-4.1465574 -1.9570795 -0.19842331
-4.3725747 -1.9570795 -0.19842331
-0.19842331 -2.176023 -0.19842331
-0.42444494 -2.176023 -0.19842331
-0.64339188 -2.176023 -0.19842331
-0.86233966 -2.176023 -0.19842331
-1.0812883 -2.176023 -0.19842331
-1.3002318 -2.176023 -0.19842331
-1.5191839 -2.176023 -0.19842331
-1.7381274 -2.176023 -0.19842331
-1.9570795 -2.176023 -0.19842331
-2.176023 -2.176023 -0.19842331
-2.394975 -2.176023 -0.19842331
-2.6139186 -2.176023 -0.19842331
-2.8328706 -2.176023 -0.19842331
-3.0518142 -2.176023 -0.19842331
-3.2707662 -2.176023 -0.19842331
-3.4897097 -2.176023 -0.19842331
-3.7086618 -2.176023 -0.19842331
-3.9276053 -2.176023 -0.19842331
-4.1465574 -2.176023 -0.19842331
-4.3725747 -2.176023 -0.19842331
-0.19842331 -2.394975 -0.19842331
-0.42444494 -2.394975 -0.19842331
-0.64339188 -2.394975 -0.19842331
-0.86233966 -2.394975 -0.19842331
-1.0812883 -2.394975 -0.19842331
-1.3002318 -2.394975 -0.19842331
-1.5191839 -2.394975 -0.19842331
-1.7381274 -2.394975 -0.19842331
-1.9570795 -2.394975 -0.19842331
-2.176023 -2.394975 -0.19842331
-2.394975 -2.394975 -0.19842331
-2.6139186 -2.394975 -0.19842331
-2.8328706 -2.394975 -0.19842331
-3.0518142 -2.394975 -0.19842331
-3.2707662 -2.394975 -0.19842331
-3.4897097 -2.394975 -0.19842331
-3.7086618 -2.394975 -0.19842331
-3.9276053 -2.394975 -0.19842331
-4.1465574 -2.394975 -0.19842331
-4.3725747 -2.394975 -0.19842331
-0.19842331 -2.6139186 -0.19842331
-0.42444494 -2.6139186 -0.19842331
-0.64339188 -2.6139186 -0.19842331
-0.86233966 -2.6139186 -0.19842331
-1.0812883 -2.6139186 -0.19842331
-1.3002318 -2.6139186 -0.19842331
-1.5191839 -2.6139186 -0.19842331
-1.7381274 -2.6139186 -0.19842331
-1.9570795 -2.6139186 -0.19842331
-2.176023 -2.6139186 -0.19842331
-2.394975 -2.6139186 -0.19842331
-2.6139186 -2.6139186 -0.19842331
-2.8328706 -2.6139186 -0.19842331
-3.0518142 -2.6139186 -0.19842331
-3.2707662 -2.6139186 -0.19842331
-3.4897097 -2.6139186 -0.19842331
-3.7086618 -2.6139186 -0.19842331
-3.9276053 -2.6139186 -0.19842331
-4.1465574 -2.6139186 -0.19842331
-4.3725747 -2.6139186 -0.19842331
-0.19842331 -2.8328706 -0.19842331
-0.42444494 -2.8328706 -0.19842331
-0.64339188 -2.8328706 -0.19842331
-0.86233966 -2.8328706 -0.19842331
-1.0812883 -2.8328706 -0.19842331
-1.3002318 -2.8328706 -0.19842331
-1.5191839 -2.8328706 -0.19842331
-1.7381274 -2.8328706 -0.19842331
-1.9570795 -2.8328706 -0.19842331
-2.176023 -2.8328706 -0.19842331
-2.394975 -2.8328706 -0.19842331
-2.6139186 -2.8328706 -0.19842331
-2.8328706 -2.8328706 -0.19842331
-3.0518142 -2.8328706 -0.19842331
-3.2707662 -2.8328706 -0.19842331
-3.4897097 -2.8328706 -0.19842331
-3.7086618 -2.8328706 -0.19842331
-3.9276053 -2.8328706 -0.19842331
-4.1465574 -2.8328706 -0.19842331
-4.3725747 -2.8328706 -0.19842331
-0.19842331 -3.0518142 -0.19842331
-0.42444494 -3.0518142 -0.19842331
-0.64339188 -3.0518142 -0.19842331
-0.86233966 -3.0518142 -0.19842331
-1.0812883 -3.0518142 -0.19842331
-1.3002318 -3.0518142 -0.19842331
-1.5191839 -3.0518142 -0.19842331
-1.7381274 -3.0518142 -0.19842331
-1.9570795 -3.0518142 -0.19842331
-2.176023 -3.0518142 -0.19842331
-2.394975 -3.0518142 -0.19842331
-2.6139186 -3.0518142 -0.19842331
-2.8328706 -3.0518142 -0.19842331
-3.0518142 -3.0518142 -0.19842331
-3.2707662 -3.0518142 -0.19842331
-3.4897097 -3.0518142 -0.19842331
-3.7086618 -3.0518142 -0.19842331
-3.9276053 -3.0518142 -0.19842331
-4.1465574 -3.0518142 -0.19842331
-4.3725747 -3.0518142 -0.19842331
-0.19842331 -3.2707662 -0.19842331
-0.42444494 -3.2707662 -0.19842331
-0.64339188 -3.2707662 -0.19842331
-0.86233966 -3.2707662 -0.19842331
-1.0812883 -3.2707662 -0.19842331
-1.3002318 -3.2707662 -0.19842331
-1.5191839 -3.2707662 -0.19842331
-1.7381274 -3.2707662 -0.19842331
-1.9570795 -3.2707662 -0.19842331
-2.176023 -3.2707662 -0.19842331
-2.394975 -3.2707662 -0.19842331
-2.6139186 -3.2707662 -0.19842331
-2.8328706 -3.2707662 -0.19842331
-3.0518142 -3.2707662 -0.19842331
-3.2707662 -3.2707662 -0.19842331
-3.4897097 -3.2707662 -0.19842331
-3.7086618 -3.2707662 -0.19842331
-3.9276053 -3.2707662 -0.19842331
-4.1465574 -3.2707662 -0.19842331
-4.3725747 -3.2707662 -0.19842331
-0.19842331 -3.4897097 -0.19842331
-0.42444494 -3.4897097 -0.19842331
-0.64339188 -3.4897097 -0.19842331
-0.86233966 -3.4897097 -0.19842331
-1.0812883 -3.4897097 -0.19842331
-1.3002318 -3.4897097 -0.19842331
-1.5191839 -3.4897097 -0.19842331
-1.7381274 -3.4897097 -0.19842331
-1.9570795 -3.4897097 -0.19842331
-2.176023 -3.4897097 -0.19842331
-2.394975 -3.4897097 -0.19842331
-2.6139186 -3.4897097 -0.19842331
-2.8328706 -3.4897097 -0.19842331
-3.0518142 -3.4897097 -0.19842331
-3.2707662 -3.4897097 -0.19842331
-3.4897097 -3.4897097 -0.19842331
-3.7086618 -3.4897097 -0.19842331
-3.9276053 -3.4897097 -0.19842331
-4.1465574 -3.4897097 -0.19842331
-4.3725747 -3.4897097 -0.19842331
-0.19842331 -3.7086618 -0.19842331
-0.42444494 -3.7086618 -0.19842331
-0.64339188 -3.7086618 -0.19842331
-0.86233966 -3.7086618 -0.19842331
-1.0812883 -3.7086618 -0.19842331
-1.3002318 -3.7086618 -0.19842331
-1.5191839 -3.7086618 -0.19842331
-1.7381274 -3.7086618 -0.19842331
-1.9570795 -3.7086618 -0.19842331
-2.176023 -3.7086618 -0.19842331
-2.394975 -3.7086618 -0.19842331
-2.6139186 -3.7086618 -0.19842331
-2.8328706 -3.7086618 -0.19842331
-3.0518142 -3.7086618 -0.19842331
-3.2707662 -3.7086618 -0.19842331
-3.4897097 -3.7086618 -0.19842331
-3.7086618 -3.7086618 -0.19842331
-3.9276053 -3.7086618 -0.19842331
-4.1465574 -3.7086618 -0.19842331
-4.3725747 -3.7086618 -0.19842331
-0.19842331 -3.9276053 -0.19842331
-0.42444494 -3.9276053 -0.19842331
-0.64339188 -3.9276053 -0.19842331
-0.86233966 -3.9276053 -0.19842331
-1.0812883 -3.9276053 -0.19842331
-1.3002318 -3.9276053 -0.19842331
-1.5191839 -3.9276053 -0.19842331
-1.7381274 -3.9276053 -0.19842331
-1.9570795 -3.9276053 -0.19842331
-2.176023 -3.9276053 -0.19842331
-2.394975 -3.9276053 -0.19842331
-2.6139186 -3.9276053 -0.19842331
-2.8328706 -3.9276053 -0.19842331
-3.0518142 -3.9276053 -0.19842331
-3.2707662 -3.9276053 -0.19842331
-3.4897097 -3.9276053 -0.19842331
-3.7086618 -3.9276053 -0.19842331
-3.9276053 -3.9276053 -0.19842331
-4.1465574 -3.9276053 -0.19842331
-4.3725747 -3.9276053 -0.19842331
-0.19842331 -4.1465574 -0.19842331
-0.42444494 -4.1465574 -0.19842331
-0.64339188 -4.1465574 -0.19842331
-0.86233966 -4.1465574 -0.19842331
-1.0812883 -4.1465574 -0.19842331
-1.3002318 -4.1465574 -0.19842331
-1.5191839 -4.1465574 -0.19842331
-1.7381274 -4.1465574 -0.19842331
-1.9570795 -4.1465574 -0.19842331
-2.176023 -4.1465574 -0.19842331
-2.394975 -4.1465574 -0.19842331
-2.6139186 -4.1465574 -0.19842331
-2.8328706 -4.1465574 -0.19842331
-3.0518142 -4.1465574 -0.19842331
-3.2707662 -4.1465574 -0.19842331
-3.4897097 -4.1465574 -0.19842331
-3.7086618 -4.1465574 -0.19842331
-3.9276053 -4.1465574 -0.19842331
-4.1465574 -4.1465574 -0.19842331
-4.3725747 -4.1465574 -0.19842331
-0.19842331 -4.3725747 -0.19842331
-0.42444494 -4.3725747 -0.19842331
-0.64339188 -4.3725747 -0.19842331
-0.86233966 -4.3725747 -0.19842331
-1.0812883 -4.3725747 -0.19842331
-1.3002318 -4.3725747 -0.19842331
-1.5191839 -4.3725747 -0.19842331
-1.7381274 -4.3725747 -0.19842331
-1.9570795 -4.3725747 -0.19842331
-2.176023 -4.3725747 -0.19842331
-2.394975 -4.3725747 -0.19842331
-2.6139186 -4.3725747 -0.19842331
-2.8328706 -4.3725747 -0.19842331
-3.0518142 -4.3725747 -0.19842331
-3.2707662 -4.3725747 -0.19842331
-3.4897097 -4.3725747 -0.19842331
-3.7086618 -4.3725747 -0.19842331
-3.9276053 -4.3725747 -0.19842331
-4.1465574 -4.3725747 -0.19842331
-4.3725747 -4.3725747 -0.19842331
-0.19842331 -0.19842331 -0.42444494
-0.42444494 -0.19842331 -0.42444494
-0.64339188 -0.19842331 -0.42444494
-0.86233966 -0.19842331 -0.42444494
-1.0812883 -0.19842331 -0.42444494
-1.3002318 -0.19842331 -0.42444494
-1.5191839 -0.19842331 -0.42444494