# vtk DataFile Version 4.0
hesp visualization file
ASCII
DATASET UNSTRUCTURED_GRID
POINTS 3000 double
0.24623494 0.24623494 0.24623494
2.5481659 0.24623494 0.24623494
4.8533047 0.24623494 0.24623494
7.1584524 0.24623494 0.24623494
9.463609 0.24623494 0.24623494
11.768712 0.24623494 0.24623494
14.073904 0.24623494 0.24623494
16.379007 0.24623494 0.24623494
18.6842 0.24623494 0.24623494
20.989303 0.24623494 0.24623494
23.294495 0.24623494 0.24623494
25.599598 0.24623494 0.24623494
27.904791 0.24623494 0.24623494
30.209894 0.24623494 0.24623494
32.515086 0.24623494 0.24623494
34.820189 0.24623494 0.24623494
37.125381 0.24623494 0.24623494
39.430484 0.24623494 0.24623494
41.735677 0.24623494 0.24623494
44.037563 0.24623494 0.24623494
0.24623494 2.5481659 0.24623494
2.5481659 2.5481659 0.24623494
4.8533047 2.5481659 0.24623494
7.1584524 2.5481659 0.24623494
9.463609 2.5481659 0.24623494
11.768712 2.5481659 0.24623494
14.073904 2.5481659 0.24623494
16.379007 2.5481659 0.24623494
18.6842 2.5481659 0.24623494
20.989303 2.5481659 0.24623494
23.294495 2.5481659 0.24623494
25.599598 2.5481659 0.24623494
27.904791 2.5481659 0.24623494
30.209894 2.5481659 0.24623494
32.515086 2.5481659 0.24623494
34.820189 2.5481659 0.24623494
37.125381 2.5481659 0.24623494
39.430484 2.5481659 0.24623494
41.735677 2.5481659 0.24623494
44.037563 2.5481659 0.24623494
0.24623494 4.8533047 0.24623494
2.5481659 4.8533047 0.24623494
4.8533047 4.8533047 0.24623494
7.1584524 4.8533047 0.24623494
9.463609 4.8533047 0.24623494
11.768712 4.8533047 0.24623494
14.073904 4.8533047 0.24623494
16.379007 4.8533047 0.24623494
18.6842 4.8533047 0.24623494
20.989303 4.8533047 0.24623494
23.294495 4.8533047 0.24623494
25.599598 4.8533047 0.24623494
27.904791 4.8533047 0.24623494
30.209894 4.8533047 0.24623494
32.515086 4.8533047 0.24623494
34.820189 4.8533047 0.24623494
37.125381 4.8533047 0.24623494
39.430484 4.8533047 0.24623494
41.735677 4.8533047 0.24623494
44.037563 4.8533047 0.24623494
0.24623494 7.1584524 0.24623494
2.5481659 7.1584524 0.24623494
4.8533047 7.1584524 0.24623494
7.1584524 7.1584524 0.24623494
9.463609 7.1584524 0.24623494
11.768712 7.1584524 0.24623494
14.073904 7.1584524 0.24623494
16.379007 7.1584524 0.24623494
18.6842 7.1584524 0.24623494
20.989303 7.1584524 0.24623494
23.294495 7.1584524 0.24623494
25.599598 7.1584524 0.24623494
27.904791 7.1584524 0.24623494
30.209894 7.1584524 0.24623494
32.515086 7.1584524 0.24623494
34.820189 7.1584524 0.24623494
37.125381 7.1584524 0.24623494
39.430484 7.1584524 0.24623494
41.735677 7.1584524 0.24623494
44.037563 7.1584524 0.24623494
0.24623494 9.463609 0.24623494
2.5481659 9.463609 0.24623494
4.8533047 9.463609 0.24623494
7.1584524 9.463609 0.24623494
9.463609 9.463609 0.24623494
11.768712 9.463609 0.24623494
14.073904 9.463609 0.24623494
16.379007 9.463609 0.24623494
18.6842 9.463609 0.24623494
20.989303 9.463609 0.24623494
23.294495 9.463609 0.24623494
25.599598 9.463609 0.24623494
27.904791 9.463609 0.24623494
30.209894 9.463609 0.24623494
32.515086 9.463609 0.24623494
34.820189 9.463609 0.24623494
37.125381 9.463609 0.24623494
39.430484 9.463609 0.24623494
41.735677 9.463609 0.24623494
44.037563 9.463609 0.24623494
0.24623494 11.768712 0.24623494
2.5481659 11.768712 0.24623494
4.8533047 11.768712 0.24623494
7.1584524 11.768712 0.24623494
9.463609 11.768712 0.24623494
11.768712 11.768712 0.24623494
14.073904 11.768712 0.24623494
16.379007 11.768712 0.24623494
18.6842 11.768712 0.24623494
20.989303 11.768712 0.24623494
23.294495 11.768712 0.24623494
25.599598 11.768712 0.24623494
27.904791 11.768712 0.24623494
30.209894 11.768712 0.24623494
32.515086 11.768712 0.24623494
34.820189 11.768712 0.24623494
37.125381 11.768712 0.24623494
39.430484 11.768712 0.24623494
41.735677 11.768712 0.24623494
44.037563 11.768712 0.24623494
0.24623494 14.073904 0.24623494
2.5481659 14.073904 0.24623494
4.8533047 14.073904 0.24623494
7.1584524 14.073904 0.24623494
9.463609 14.073904 0.24623494
11.768712 14.073904 0.24623494
14.073904 14.073904 0.24623494
16.379007 14.073904 0.24623494
18.6842 14.073904 0.24623494
20.989303 14.073904 0.24623494
23.294495 14.073904 0.24623494
25.599598 14.073904 0.24623494
27.904791 14.073904 0.24623494
30.209894 14.073904 0.24623494
32.515086 14.073904 0.24623494
34.820189 14.073904 0.24623494
37.125381 14.073904 0.24623494
39.430484 14.073904 0.24623494
41.735677 14.073904 0.24623494
44.037563 14.073904 0.24623494
0.24623494 16.379007 0.24623494
2.5481659 16.379007 0.24623494
4.8533047 16.379007 0.24623494
7.1584524 16.379007 0.24623494
9.463609 16.379007 0.24623494
11.768712 16.379007 0.24623494
14.073904 16.379007 0.24623494
16.379007 16.379007 0.24623494
18.6842 16.379007 0.24623494
20.989303 16.379007 0.24623494
23.294495 16.379007 0.24623494
25.599598 16.379007 0.24623494
27.904791 16.379007 0.24623494
30.209894 16.379007 0.24623494
32.515086 16.379007 0.24623494
34.820189 16.379007 0.24623494
37.125381 16.379007 0.24623494
39.430484 16.379007 0.24623494
41.735677 16.379007 0.24623494
44.037563 16.379007 0.24623494
0.24623494 18.6842 0.24623494
2.5481659 18.6842 0.24623494
4.8533047 18.6842 0.24623494
7.1584524 18.6842 0.24623494
9.463609 18.6842 0.24623494
11.768712 18.6842 0.24623494
14.073904 18.6842 0.24623494
16.379007 18.6842 0.24623494
18.6842 18.6842 0.24623494
20.989303 18.6842 0.24623494
23.294495 18.6842 0.24623494
25.599598 18.6842 0.24623494
27.904791 18.6842 0.24623494
30.209894 18.6842 0.24623494
32.515086 18.6842 0.24623494
34.820189 18.6842 0.24623494
37.125381 18.6842 0.24623494
39.430484 18.6842 0.24623494
41.735677 18.6842 0.24623494
44.037563 18.6842 0.24623494
0.24623494 20.989303 0.24623494
2.5481659 20.989303 0.24623494
4.8533047 20.989303 0.24623494
7.1584524 20.989303 0.24623494
9.463609 20.989303 0.24623494
11.768712 20.989303 0.24623494
14.073904 20.989303 0.24623494
16.379007 20.989303 0.24623494
18.6842 20.989303 0.24623494
20.989303 20.989303 0.24623494
23.294495 20.989303 0.24623494
25.599598 20.989303 0.24623494
27.904791 20.989303 0.24623494
30.209894 20.989303 0.24623494
32.515086 20.989303 0.24623494
34.820189 20.989303 0.24623494
37.125381 20.989303 0.24623494
39.430484 20.989303 0.24623494
41.735677 20.989303 0.24623494
44.037563 20.989303 0.24623494
0.24623494 23.294495 0.24623494
2.5481659 23.294495 0.24623494
4.8533047 23.294495 0.24623494
7.1584524 23.294495 0.24623494
9.463609 23.294495 0.24623494
11.768712 23.294495 0.24623494
14.073904 23.294495 0.24623494
16.379007 23.294495 0.24623494
18.6842 23.294495 0.24623494
20.989303 23.294495 0.24623494
23.294495 23.294495 0.24623494
25.599598 23.294495 0.24623494
27.904791 23.294495 0.24623494
30.209894 23.294495 0.24623494
32.515086 23.294495 0.24623494
34.820189 23.294495 0.24623494
37.125381 23.294495 0.24623494
39.430484 23.294495 0.24623494
41.735677 23.294495 0.24623494
44.037563 23.294495 0.24623494
0.24623494 25.599598 0.24623494
2.5481659 25.599598 0.24623494
4.8533047 25.599598 0.24623494
7.1584524 25.599598 0.24623494
9.463609 25.599598 0.24623494
11.768712 25.599598 0.24623494
14.073904 25.599598 0.24623494
16.379007 25.599598 0.24623494
18.6842 25.599598 0.24623494
20.989303 25.599598 0.24623494
23.294495 25.599598 0.24623494
25.599598 25.599598 0.24623494
27.904791 25.599598 0.24623494
30.209894 25.599598 0.24623494
32.515086 25.599598 0.24623494
34.820189 25.599598 0.24623494
37.125381 25.599598 0.24623494
39.430484 25.599598 0.24623494
41.735677 25.599598 0.24623494
44.037563 25.599598 0.24623494
0.24623494 27.904791 0.24623494
2.5481659 27.904791 0.24623494
4.8533047 27.904791 0.24623494
7.1584524 27.904791 0.24623494
9.463609 27.904791 0.24623494
11.768712 27.904791 0.24623494
14.073904 27.904791 0.24623494
16.379007 27.904791 0.24623494
18.6842 27.904791 0.24623494
20.989303 27.904791 0.24623494
23.294495 27.904791 0.24623494
25.599598 27.904791 0.24623494
27.904791 27.904791 0.24623494
30.209894 27.904791 0.24623494
32.515086 27.904791 0.24623494
34.820189 27.904791 0.24623494
37.125381 27.904791 0.24623494
39.430484 27.904791 0.24623494
41.735677 27.904791 0.24623494
44.037563 27.904791 0.24623494
0.24623494 30.209894 0.24623494
2.5481659 30.209894 0.24623494
4.8533047 30.209894 0.24623494
7.1584524 30.209894 0.24623494
9.463609 30.209894 0.24623494
11.768712 30.209894 0.24623494
14.073904 30.209894 0.24623494
16.379007 30.209894 0.24623494
18.6842 30.209894 0.24623494
20.989303 30.209894 0.24623494
23.294495 30.209894 0.24623494
25.599598 30.209894 0.24623494
27.904791 30.209894 0.24623494
30.209894 30.209894 0.24623494
32.515086 30.209894 0.24623494
34.820189 30.209894 0.24623494
37.125381 30.209894 0.24623494
39.430484 30.209894 0.24623494
41.735677 30.209894 0.24623494
44.037563 30.209894 0.24623494
0.24623494 32.515086 0.24623494
2.5481659 32.515086 0.24623494
4.8533047 32.515086 0.24623494
7.1584524 32.515086 0.24623494
9.463609 32.515086 0.24623494
11.768712 32.515086 0.24623494
14.073904 32.515086 0.24623494
16.379007 32.515086 0.24623494
18.6842 32.515086 0.24623494
20.989303 32.515086 0.24623494
23.294495 32.515086 0.24623494
25.599598 32.515086 0.24623494
27.904791 32.515086 0.24623494
30.209894 32.515086 0.24623494
32.515086 32.515086 0.24623494
34.820189 32.515086 0.24623494
37.125381 32.515086 0.24623494
39.430484 32.515086 0.24623494
41.735677 32.515086 0.24623494
44.037563 32.515086 0.24623494
0.24623494 34.820189 0.24623494
2.5481659 34.820189 0.24623494
4.8533047 34.820189 0.24623494
7.1584524 34.820189 0.24623494
9.463609 34.820189 0.24623494
11.768712 34.820189 0.24623494
14.073904 34.820189 0.24623494
16.379007 34.820189 0.24623494
18.6842 34.820189 0.24623494
20.989303 34.820189 0.24623494
23.294495 34.820189 0.24623494
25.599598 34.820189 0.24623494
27.904791 34.820189 0.24623494
30.209894 34.820189 0.24623494
32.515086 34.820189 0.24623494
34.820189 34.820189 0.24623494
37.125381 34.820189 0.24623494
39.430484 34.820189 0.24623494
41.735677 34.820189 0.24623494
44.037563 34.820189 0.24623494
0.24623494 37.125381 0.24623494
[...]
POINT_DATA 3000
SCALARS m double
LOOKUP_TABLE default
1
1
1
1
1
1
1
1
1
1
1
1
1
1
1
1
1
1
1
1
1
1
1
1
1
1
1
1
1
1
1
1
1
1
1
1
1
1
1
1
1
1
1
1
1
1
1
1
1
1
1
1
1
1
1
1
1
1
1
1
1
1
1
1
1
1
1
1
1
1
1
1
1
1
1
1
1
1
1
1
1
1
1
1
1
1
1
1
1
1
1
1
1
1
1
1
1
1
1
1
1
1
1
1
1
1
1
1
1
1
1
1
1
1
1
1
1
1
1
1
1
1
1
1
1
1
1
1
1
1
1
1
1
1
1
1
1
1
1
1
1
1
1
1
1
1
1
1
1
1
1
1
1
1
1
1
1
1
1
1
1
1
1
1
1
1
1
1
1
1
1
1
1
1
1
1
1
1
1
1
1
1
1
1
1
1
1
1
1
1
1
1
1
1
1
1
1
1
1
1
1
1
1
1
1
1
1
1
1
1
1
1
1
1
1
1
1
1
1
1
1
1
1
1
1
1
1
1
1
1
1
1
1
1
1
1
1
1
1
1
1
1
1
1
1
1
1
1
1
1
1
1
1
1
1
1
1
1
1
1
1
1
1
1
1
1
1
1
1
1
1
1
1
1
1
1
1
1
1
1
1
1
1
1
1
1
1
1
1
1
1
1
1
1
1
1
1
1
1
1
1
1
1
1
1
1
1
1
1
1
1
1
1
1
1
1
1
1
1
1
1
1
1
1
1
1
1
1
1
1
1
1
1
1
1
1
1
1
1
1
1
1
1
1
1
1
1
1
1
1
1
1
1
1
1
1
1
1
1
1
1
1
1
1
1
1
1
1
1
1
1
1
1
1
1
1
1
1
1
1
1
1
1
1
1
1
1
1
1
1
1
1
1
1
1
1
1
1
1
1
1
1
1
1
1
1
1
1
1
1
1
1
1
1
1
1
1
1
1
1
1
1
1
1
1
1
1
1
1
1
1
1
1
1
1
1
1
1
1
1
1
1
1
1
1
1
1
1
1
1
1
1
1
1
1
1
1
1
1
1
1
1
1
1
1
1
1
1
1
1
1
1
1
1
1
1
1
1
1
1
1
1
1
1
1
1
1
1
1
1
1
1
1
1
1
1
1
1
1
1
1
1
1
1
1
1
1
1
1
1
1
1
1
1
1
1
1
1
1
1
1
1
1
1
1
1
1
1
1
1
1
1
1
1
1
1
1
1
1
1
1
1
1
1
1
1
1
1
1
1
1
1
1
1
1
1
1
1
1
1
1
1
1
1
1
1
1
1
1
1
1
1
1
1
1
1
1
1
1
1
1
1
1
1
1
1
1
1
1
1
1
1
1
1
1
1
1
1
1
1
1
1
1
1
1
1
1
1
1
1
1
1
1
1
1
1
1
1
1
1
1
1
1
1
1
1
1
1
1
1
1
1
1
1
1
1
1
1
1
1
1
1
1
1
1
1
1
1
1
1
1
1
1
1
1
1
1
1
1
1
1
1
1
1
1
1
1
1
1
1
1
1
1
1
1
1
1
1
1
1
1
1
1
1
1
1
1
1
1
1
1
1
1
1
1
1
1
1
1
1
1
1
1
1
1
1
1
1
1
1
1
1
1
1
1
1
1
1
1
1
1
1
1
1
1
1
1
1
1
1
1
1
1
1
1
1
1
1
1
1
1
1
1
1
1
1
1
1
1
1
1
1
1
1
1
1
1
1
1
1
1
1
1
1
1
1
1
1
1
1
1
1
1
1
1
1
1
1
1
1
1
1
1
1
1
1
1
1
1
1
1
1
1
1
1
1
1
1
1
1
1
1
1
1
1
1
1
1
1
1
1
1
1
1
1
1
1
1
1
1
1
1
1
1
1
1
1
1
1
1
1
1
1
1
1
1
1
1
1
1
1
1
1
1
1
1
1
1
1
1
1
1
1
1
1
1
1
1
1
1
1
1
1
1
1
1
1
1
1
1
1
1
1
1
1
1
1
1
1
1
1
1
1
1
1
1
1
1
1
1
1
1
1
1
1
1
1
1
1
1
1
1
1
1
1
1
1
1
1
1
1
1
1
1
1
1
1
1
1
1
1
1
1
1
1
1
1
1
1
1
1
1
1
1
1
1
1
1
1
1
1
1
1
1
1
1
1
1
1
1
1
1
1
1
1
1
1
1
1
1
1
1
1
1
1
1
1
1
1
1
1
1
1
1
1
1
1
1
1
1
1
1
1
1
1
1
1
1
1
1
1
1
1
1
1
1
1
1
1
1
1
1
1
1
1
1
1
1
1
1
1
1
1
1
1
1
1
1
1
1
1
1
1
1
1
1
1
1
1
1
1
1
1
1
1
1
1
1
1
1
1
1
1
1
1
1
1
1
1
1
1
1
1
1
1
1
1
1
1
1
1
1
1
1
1
1
1
1
1
1
1
1
1
1
1
1
1
1
1
1
1
1
1
1
1
1
1
1
1
1
1
1
1
1
1
1
1
1
1
1
1
1
1
1
1
1
1
1
1
1
1
1
1
1
1
1
1
1
1
1
1
1
1
1
1
1
1
1
1
1
1
1
1
1
1
1
1
1
1
1
1
1
1
1
1
1
1
1
1
1
1
1
1
1
1
1
1
1
1
1
1
1
1
1
1
1
1
1
1
1
1
1
1
1
1
1
1
1
1
1
1
1
1
1
1
1
1
1
1
1
1
1
1
1
1
1
1
1
1
1
1
1
1
1
1
1
1
1
1
1
1
1
1
1
1
1
1
1
1
1
1
1
1
1
1
1
1
1
1
1
1
1
1
1
1
1
1
1
1
1
1
1
1
1
1
1
1
1
1
1
1
1
1
1
1
1
1
1
1
1
1
1
1
1
1
1
1
1
1
1
1
1
1
1
1
1
1
1
1
1
1
1
1
1
1
1
1
1
1
1
1
1
1
1
1
1
1
1
1
1
1
1
1
1
1
1
1
1
1
1
1
1
1
1
1
1
1
1
1
1
1
1
1
1
1
1
1
1
1
1
1
1
1
1
1
1
1
1
1
1
1
1
1
1
1
1
1
1
1
1
1
1
1
1
1
1
1
1
1
1
1
1
1
1
1
1
1
1
1
1
1
1
1
1
1
1
1
1
1
1
1
1
1
1
1
1
1
1
1
1
1
1
1
1
1
1
1
1
1
1
1
1
1
1
1
1
1
1
1
1
1
1
1
1
1
1
1
1
1
1
1
1
1
1
1
1
1
1
1
1
1
1
1
1
1
1
1
1
1
1
1
1
1
1
1
1
1
1
1
1
1
1
1
1
1
1
1
1
1
1
1
1
1
1
1
1
1
1
1
1
1
1
1
1
1
1
1
1
1
1
1
1
1
1
1
1
1
1
1
1
1
1
1
1
1
1
1
1
1
1
1
1
1
1
1
1
1
1
1
1
1
1
1
1
1
1
1
1
1
1
1
1
1
1
1
1
1
1
1
1
1
1
1
1
1
1
1
1
1
1
1
1
1
1
1
1
1
1
1
1
1
1
1
1
1
1
1
1
1
1
1
1
1
1
1
1
1
1
1
1
1
1
1
1
1
1
1
1
1
1
1
1
1
1
1
1
1
1
1
1
1
1
1
1
1
1
1
1
1
1
1
1
1
1
1
1
1
1
1
1
1
1
1
1
1
1
1
1
1
1
1
1
1
1
1
1
1
1
1
1
1
1
1
1
1
1
1
1
1
1
1
1
1
1
1
1
1
1
1
1
1
1
1
1
1
1
1
1
1
1
1
1
1
1
1
1
1
1
1
1
1
1
1
1
1
1
1
1
1
1
1
1
1
1
1
1
1
1
1
1
1
1
1
1
1
1
1
1
1
1
1
1
1
1
1
1
1
1
1
1
1
1
1
1
1
1
1
1
1
1
1
1
1
1
1
1
1
1
1
1
1
1
1
1
1
1
1
1
1
1
1
1
1
1
1
1
1
1
1
1
1
1
1
1
1
1
1
1
1
1
1
1
1
1
1
1
1
1
1
1
1
1
1
1
1
1
1
1
1
1
1
1
1
1
1
1
1
1
1
1
1
1
1
1
1
1
1
1
1
1
1
1
1
1
1
1
1
1
1
1
1
1
1
1
1
1
1
1
1
1
1
1
1
1
1
1
1
1
1
1
1
1
1
1
1
1
1
1
1
1
1
1
1
1
1
1
1
1
1
1
1
1
1
1
1
1
1
1
1
1
1
1
1
1
1
1
1
1
1
1
1
1
1
1
1
1
1
1
1
1
1
1
1
1
1
1
1
1
1
1
1
1
1
1
1
1
1
1
1
1
1
1
1
1
1
1
1
1
1
1
1
1
1
1
1
1
1
1
1
1
1
1
1
1
1
1
1
1
1
1
1
1
1
1
1
1
1
1
1
1
1
1
1
1
1
1
1
1
1
1
1
1
1
1
1
1
1
1
1
1
1
1
1
1
1
1
1
1
1
1
1
1
1
1
1
1
1
1
1
1
1
1
1
1
1
1
1
1
1
1
1
1
1
1
1
1
1
1
1
1
1
1
1
1
1
1
1
1
1
1
1
1
1
1
1
1
1
1
1
1
1
1
1
1
1
1
1
1
1
1
1
1
1
1
1
1
1
1
1
1
1
1
1
1
1
1
1
1
1
1
1
1
1
1
1
1
1
1
1
1
1
1
1
1
1
1
1
1
1
1
1
1
1
1
1
1
1
1
1
1
1
1
1
1
1
1
1
1
1
1
1
1
1
1
1
1
1
1
1
1
1
1
1
1
1
1
1
1
1
1
1
1
1
1
1
1
1
1
1
1
1
1
1
1
1
1
1
1
1
1
1
1
1
1
1
1
1
1
1
1
1
1
1
1
1
1
1
1
1
1
1
1
1
1
1
1
1
1
1
1
1
1
1
1
1
1
1
1
1
1
1
1
1
1
1
1
1
1
1
1
1
1
1
1
1
1
1
1
1
1
1
1
1
1
1
1
1
1
1
1
1
1
1
1
1
1
1
1
1
1
1
1
1
1
1
1
1
1
1
1
1
1
1
1
1
1
1
1
1
1
1
1
1
1
1
1
1
1
1
1
1
1
1
1
1
1
1
1
1
1
1
1
1
1
1
1
1
1
1
1
1
1
1
1
1
1
1
1
1
1
1
1
1
1
1
1
1
1
1
1
1
1
1
1
1
1
1
1
1
1
1
1
1
1
1
1
1
1
1
1
1
1
1
1
1
1
1
1
1
1
1
1
1
1
1
1
1
1
1
1
1
1
1
1
1
1
1
1
1
1
1
1
1
1
1
1
1
1
1
1
1
1
1
1
1
1
1
1
1
1
1
1
1
1
1
1
1
1
1
1
1
1
1
1
1
1
1
1
1
1
1
1
1
1
1
1
1
1
1
1
1
1
1
1
1
1
1
1
1
1
1
1
1
1
1
1
1
1
1
1
1
1
1
1
1
1
1
1
1
1
1
1
1
1
1
1
1
1
1
1
1
1
1
1
1
1
1
1
1
1
1
1
1
1
1
1
1
1
1
1
1
1
1
1
1
1
1
1
1
1
1
1
1
1
1
1
1
1
1
1
1
1
1
1
1
1
1
1
1
1
1
1
1
1
1
1
1
1
1
1
1
1
1
1
1
1
1
1
1
1
1
1
1
1
1
1
1
1
1
1
1
1
1
1
1
1
1
1
1
1
1
1
1
1
1
1
1
1
1
1
1
1
1
1
1
1
1
1
1
1
1
1
1
1
1
1
1
1
1
1
1
1
1
1
1
1
1
1
1
1
1
1
1
1
1
1
1
1
1
1
1
1
1
1
1
1
1
1
1
1
1
1
1
1
1
1
1
1
1
1
1
1
1
1
1
1
1
1
1
1
1
1
1
1
1
1
1
1
1
1
1
1
1
1
1
1
1
1
1
1
1
1
1
1
1
1
1
1
1
1
1
1
1
1
1
1
1
1
1
1
1
1
1
1
1
1
1
1
1
1
1
1
1
1
1
1
1
1
1
1
1
1
1
1
1
1
1
1
1
1
1
1
1
1
1
1
1
1
1
1
1
1
1
1
1
1
1
1
1
1
1
1
1
1
1
1
1
1
1
1
1
1
1
1
1
1
1
1
1
1
1
1
1
1
1
1
1
1
1
1
1
1
1
1
1
1
1
1
1
1
1
1
1
1
1
1
1
1
1
1
1
1
1
1
1
1
1
1
1
1
1
1
1
1
1
1
1
1
1
1
1
1
1
1
1
1
1
1
1
1
1
1
1
1
1
1
1
1
1
1
1
1
1
1
1
1
1
1
1
1
1
1
1
1
1
1
1
1
1
1
1
1
1
1
1
1
1
1
1
1
1
1
1
1
1
1
1
1
1
1
1
1
1
1
1
1
1
1
1
1
1
1
1
1
1
1
1
1
1
1
1
1
1
1
1
1
1
1
1
1
1
1
1
1
1
1
1
1
1
1
1
1
1
1
1
1
1
1
1
1
1
1
1
1
1
1
1
1
1
1
1
1
1
1
1
1
1
1
1
1
1
1
1
1
1
1
1
1
1
1
1
1
1
1
1
1
1
1
1
1
1
1
1
1
1
1
1
1
1
1
1
1
1
1
1
1
1
1
1
1
1
1
1
1
1
1
1
1
1
1
1
1
1
1
1
1
1
1
1
1
1
1
1
1
1
1
1
1
1
1
1
1
1
1
1
1
1
1
1
1
1
1
1
1
1
1
1
1
1
1
1
1
1
1
1
1
1
1
1
1
1
1
1
1
1
1
1
1
1
1
1
1
1
1
1
1
1
1
1
1
VECTORS v double
-1.0790868 -1.0790868 -1.0790868
-2.2418837 -1.0790868 -1.0790868
-3.3983437 -1.0790868 -1.0790868
-4.5548081 -1.0790868 -1.0790868
-5.711277 -1.0790868 -1.0790868
-6.8677191 -1.0790868 -1.0790868
-8.0242059 -1.0790868 -1.0790868
-9.180648 -1.0790868 -1.0790868
-10.337135 -1.0790868 -1.0790868
-11.493577 -1.0790868 -1.0790868
-12.650064 -1.0790868 -1.0790868
-13.806506 -1.0790868 -1.0790868
-14.962993 -1.0790868 -1.0790868
-16.119435 -1.0790868 -1.0790868
-17.275922 -1.0790868 -1.0790868
-18.432364 -1.0790868 -1.0790868
-19.58885 -1.0790868 -1.0790868
-20.745292 -1.0790868 -1.0790868
-21.901779 -1.0790868 -1.0790868
-23.064554 -1.0790868 -1.0790868
-1.0790868 -2.2418837 -1.0790868
-2.2418837 -2.2418837 -1.0790868
-3.3983437 -2.2418837 -1.0790868
-4.5548081 -2.2418837 -1.0790868
-5.711277 -2.2418837 -1.0790868
-6.8677191 -2.2418837 -1.0790868
-8.0242059 -2.2418837 -1.0790868
-9.180648 -2.2418837 -1.0790868
-10.337135 -2.2418837 -1.0790868
-11.493577 -2.2418837 -1.0790868
-12.650064 -2.2418837 -1.0790868
-13.806506 -2.2418837 -1.0790868
-14.962993 -2.2418837 -1.0790868
-16.119435 -2.2418837 -1.0790868
-17.275922 -2.2418837 -1.0790868
-18.432364 -2.2418837 -1.0790868
-19.58885 -2.2418837 -1.0790868
-20.745292 -2.2418837 -1.0790868
-21.901779 -2.2418837 -1.0790868
-23.064554 -2.2418837 -1.0790868
-1.0790868 -3.3983437 -1.0790868
-2.2418837 -3.3983437 -1.0790868
-3.3983437 -3.3983437 -1.0790868
-4.5548081 -3.3983437 -1.0790868
-5.711277 -3.3983437 -1.0790868
-6.8677191 -3.3983437 -1.0790868
-8.0242059 -3.3983437 -1.0790868
-9.180648 -3.3983437 -1.0790868
-10.337135 -3.3983437 -1.0790868
-11.493577 -3.3983437 -1.0790868
-12.650064 -3.3983437 -1.0790868
-13.806506 -3.3983437 -1.0790868
-14.962993 -3.3983437 -1.0790868
-16.119435 -3.3983437 -1.0790868
-17.275922 -3.3983437 -1.0790868
-18.432364 -3.3983437 -1.0790868
-19.58885 -3.3983437 -1.0790868
-20.745292 -3.3983437 -1.0790868
-21.901779 -3.3983437 -1.0790868
-23.064554 -3.3983437 -1.0790868
-1.0790868 -4.5548081 -1.0790868
-2.2418837 -4.5548081 -1.0790868
-3.3983437 -4.5548081 -1.0790868
-4.5548081 -4.5548081 -1.0790868
-5.711277 -4.5548081 -1.0790868
-6.8677191 -4.5548081 -1.0790868
-8.0242059 -4.5548081 -1.0790868
-9.180648 -4.5548081 -1.0790868
-10.337135 -4.5548081 -1.0790868
-11.493577 -4.5548081 -1.0790868
-12.650064 -4.5548081 -1.0790868
-13.806506 -4.5548081 -1.0790868
-14.962993 -4.5548081 -1.0790868
-16.119435 -4.5548081 -1.0790868
-17.275922 -4.5548081 -1.0790868
-18.432364 -4.5548081 -1.0790868
-19.58885 -4.5548081 -1.0790868
-20.745292 -4.5548081 -1.0790868
-21.901779 -4.5548081 -1.0790868
-23.064554 -4.5548081 -1.0790868
-1.0790868 -5.711277 -1.0790868
-2.2418837 -5.711277 -1.0790868
-3.3983437 -5.711277 -1.0790868
-4.5548081 -5.711277 -1.0790868
-5.711277 -5.711277 -1.0790868
-6.8677191 -5.711277 -1.0790868
-8.0242059 -5.711277 -1.0790868
-9.180648 -5.711277 -1.0790868
-10.337135 -5.711277 -1.0790868
-11.493577 -5.711277 -1.0790868
-12.650064 -5.711277 -1.0790868
-13.806506 -5.711277 -1.0790868
-14.962993 -5.711277 -1.0790868
-16.119435 -5.711277 -1.0790868
-17.275922 -5.711277 -1.0790868
-18.432364 -5.711277 -1.0790868
-19.58885 -5.711277 -1.0790868
-20.745292 -5.711277 -1.0790868
-21.901779 -5.711277 -1.0790868
-23.064554 -5.711277 -1.0790868
-1.0790868 -6.8677191 -1.0790868
-2.2418837 -6.8677191 -1.0790868
-3.3983437 -6.8677191 -1.0790868
-4.5548081 -6.8677191 -1.0790868
-5.711277 -6.8677191 -1.0790868
-6.8677191 -6.8677191 -1.0790868
-8.0242059 -6.8677191 -1.0790868
-9.180648 -6.8677191 -1.0790868
-10.337135 -6.8677191 -1.0790868
-11.493577 -6.8677191 -1.0790868
-12.650064 -6.8677191 -1.0790868
-13.806506 -6.8677191 -1.0790868
-14.962993 -6.8677191 -1.0790868
-16.119435 -6.8677191 -1.0790868
-17.275922 -6.8677191 -1.0790868
-18.432364 -6.8677191 -1.0790868
-19.58885 -6.8677191 -1.0790868
-20.745292 -6.8677191 -1.0790868
-21.901779 -6.8677191 -1.0790868
-23.064554 -6.8677191 -1.0790868
-1.0790868 -8.0242059 -1.0790868
-2.2418837 -8.0242059 -1.0790868
-3.3983437 -8.0242059 -1.0790868
-4.5548081 -8.0242059 -1.0790868
-5.711277 -8.0242059 -1.0790868
-6.8677191 -8.0242059 -1.0790868
-8.0242059 -8.0242059 -1.0790868
-9.180648 -8.0242059 -1.0790868
-10.337135 -8.0242059 -1.0790868
-11.493577 -8.0242059 -1.0790868
-12.650064 -8.0242059 -1.0790868
-13.806506 -8.0242059 -1.0790868
-14.962993 -8.0242059 -1.0790868
-16.119435 -8.0242059 -1.0790868
-17.275922 -8.0242059 -1.0790868
-18.432364 -8.0242059 -1.0790868
-19.58885 -8.0242059 -1.0790868
-20.745292 -8.0242059 -1.0790868
-21.901779 -8.0242059 -1.0790868
-23.064554 -8.0242059 -1.0790868
-1.0790868 -9.180648 -1.0790868
-2.2418837 -9.180648 -1.0790868
-3.3983437 -9.180648 -1.0790868
-4.5548081 -9.180648 -1.0790868
-5.711277 -9.180648 -1.0790868
-6.8677191 -9.180648 -1.0790868
-8.0242059 -9.180648 -1.0790868
-9.180648 -9.180648 -1.0790868
-10.337135 -9.180648 -1.0790868
-11.493577 -9.180648 -1.0790868
-12.650064 -9.180648 -1.0790868
-13.806506 -9.180648 -1.0790868
-14.962993 -9.180648 -1.0790868
-16.119435 -9.180648 -1.0790868
-17.275922 -9.180648 -1.0790868
-18.432364 -9.180648 -1.0790868
-19.58885 -9.180648 -1.0790868
-20.745292 -9.180648 -1.0790868
-21.901779 -9.180648 -1.0790868
-23.064554 -9.180648 -1.0790868
-1.0790868 -10.337135 -1.0790868
-2.2418837 -10.337135 -1.0790868
-3.3983437 -10.337135 -1.0790868
-4.5548081 -10.337135 -1.0790868
-5.711277 -10.337135 -1.0790868
-6.8677191 -10.337135 -1.0790868
-8.0242059 -10.337135 -1.0790868
-9.180648 -10.337135 -1.0790868
-10.337135 -10.337135 -1.0790868
-11.493577 -10.337135 -1.0790868
-12.650064 -10.337135 -1.0790868
-13.806506 -10.337135 -1.0790868
-14.962993 -10.337135 -1.0790868
-16.119435 -10.337135 -1.0790868
-17.275922 -10.337135 -1.0790868
-18.432364 -10.337135 -1.0790868
-19.58885 -10.337135 -1.0790868
-20.745292 -10.337135 -1.0790868
-21.901779 -10.337135 -1.0790868
-23.064554 -10.337135 -1.0790868
-1.0790868 -11.493577 -1.0790868
-2.2418837 -11.493577 -1.0790868
-3.3983437 -11.493577 -1.0790868
-4.5548081 -11.493577 -1.0790868
-5.711277 -11.493577 -1.0790868
-6.8677191 -11.493577 -1.0790868
-8.0242059 -11.493577 -1.0790868
-9.180648 -11.493577 -1.0790868
-10.337135 -11.493577 -1.0790868
-11.493577 -11.493577 -1.0790868
-12.650064 -11.493577 -1.0790868
-13.806506 -11.493577 -1.0790868
-14.962993 -11.493577 -1.0790868
-16.119435 -11.493577 -1.0790868
-17.275922 -11.493577 -1.0790868
-18.432364 -11.493577 -1.0790868
-19.58885 -11.493577 -1.0790868
-20.745292 -11.493577 -1.0790868
-21.901779 -11.493577 -1.0790868
-23.064554 -11.493577 -1.0790868
-1.0790868 -12.650064 -1.0790868
-2.2418837 -12.650064 -1.0790868
-3.3983437 -12.650064 -1.0790868
-4.5548081 -12.650064 -1.0790868
-5.711277 -12.650064 -1.0790868
-6.8677191 -12.650064 -1.0790868
-8.0242059 -12.650064 -1.0790868
-9.180648 -12.650064 -1.0790868
-10.337135 -12.650064 -1.0790868
-11.493577 -12.650064 -1.0790868
-12.650064 -12.650064 -1.0790868
-13.806506 -12.650064 -1.0790868
-14.962993 -12.650064 -1.0790868
-16.119435 -12.650064 -1.0790868
-17.275922 -12.650064 -1.0790868
-18.432364 -12.650064 -1.0790868
-19.58885 -12.650064 -1.0790868
-20.745292 -12.650064 -1.0790868
-21.901779 -12.650064 -1.0790868
-23.064554 -12.650064 -1.0790868
-1.0790868 -13.806506 -1.0790868
-2.2418837 -13.806506 -1.0790868
-3.3983437 -13.806506 -1.0790868
-4.5548081 -13.806506 -1.0790868
-5.711277 -13.806506 -1.0790868
-6.8677191 -13.806506 -1.0790868
-8.0242059 -13.806506 -1.0790868
-9.180648 -13.806506 -1.0790868
-10.337135 -13.806506 -1.0790868
-11.493577 -13.806506 -1.0790868
-12.650064 -13.806506 -1.0790868
-13.806506 -13.806506 -1.0790868
-14.962993 -13.806506 -1.0790868
-16.119435 -13.806506 -1.0790868
-17.275922 -13.806506 -1.0790868
-18.432364 -13.806506 -1.0790868
-19.58885 -13.806506 -1.0790868
-20.745292 -13.806506 -1.0790868
-21.901779 -13.806506 -1.0790868
-23.064554 -13.806506 -1.0790868
-1.0790868 -14.962993 -1.0790868
-2.2418837 -14.962993 -1.0790868
-3.3983437 -14.962993 -1.0790868
-4.5548081 -14.962993 -1.0790868
-5.711277 -14.962993 -1.0790868
-6.8677191 -14.962993 -1.0790868
-8.0242059 -14.962993 -1.0790868
-9.180648 -14.962993 -1.0790868
-10.337135 -14.962993 -1.0790868
-11.493577 -14.962993 -1.0790868
-12.650064 -14.962993 -1.0790868
-13.806506 -14.962993 -1.0790868
-14.962993 -14.962993 -1.0790868
-16.119435 -14.962993 -1.0790868
-17.275922 -14.962993 -1.0790868
-18.432364 -14.962993 -1.0790868
-19.58885 -14.962993 -1.0790868
-20.745292 -14.962993 -1.0790868
-21.901779 -14.962993 -1.0790868
-23.064554 -14.962993 -1.0790868
-1.0790868 -16.119435 -1.0790868
-2.2418837 -16.119435 -1.0790868
-3.3983437 -16.119435 -1.0790868
-4.5548081 -16.119435 -1.0790868
-5.711277 -16.119435 -1.0790868
-6.8677191 -16.119435 -1.0790868
-8.0242059 -16.119435 -1.0790868
-9.180648 -16.119435 -1.0790868
-10.337135 -16.119435 -1.0790868
-11.493577 -16.119435 -1.0790868
-12.650064 -16.119435 -1.0790868
-13.806506 -16.119435 -1.0790868
-14.962993 -16.119435 -1.0790868
-16.119435 -16.119435 -1.0790868
-17.275922 -16.119435 -1.0790868
-18.432364 -16.119435 -1.0790868
-19.58885 -16.119435 -1.0790868
-20.745292 -16.119435 -1.0790868
-21.901779 -16.119435 -1.0790868
-23.064554 -16.119435 -1.0790868
-1.0790868 -17.275922 -1.0790868
-2.2418837 -17.275922 -1.0790868
-3.3983437 -17.275922 -1.0790868
-4.5548081 -17.275922 -1.0790868
-5.711277 -17.275922 -1.0790868
-6.8677191 -17.275922 -1.0790868
-8.0242059 -17.275922 -1.0790868
-9.180648 -17.275922 -1.0790868
-10.337135 -17.275922 -1.0790868
-11.493577 -17.275922 -1.0790868
-12.650064 -17.275922 -1.0790868
-13.806506 -17.275922 -1.0790868
-14.962993 -17.275922 -1.0790868
-16.119435 -17.275922 -1.0790868
-17.275922 -17.275922 -1.0790868
-18.432364 -17.275922 -1.0790868
-19.58885 -17.275922 -1.0790868
-20.745292 -17.275922 -1.0790868
-21.901779 -17.275922 -1.0790868
-23.064554 -17.275922 -1.0790868
-1.0790868 -18.432364 -1.0790868
-2.2418837 -18.432364 -1.0790868
-3.3983437 -18.432364 -1.0790868
-4.5548081 -18.432364 -1.0790868
-5.711277 -18.432364 -1.0790868
-6.8677191 -18.432364 -1.0790868
-8.0242059 -18.432364 -1.0790868
-9.180648 -18.432364 -1.0790868
-10.337135 -18.432364 -1.0790868
-11.493577 -18.432364 -1.0790868
-12.650064 -18.432364 -1.0790868
-13.806506 -18.432364 -1.0790868
-14.962993 -18.432364 -1.0790868
-16.119435 -18.432364 -1.0790868
-17.275922 -18.432364 -1.0790868
-18.432364 -18.432364 -1.0790868
-19.58885 -18.432364 -1.0790868
-20.745292 -18.432364 -1.0790868
-21.901779 -18.432364 -1.0790868
-23.064554 -18.432364 -1.0790868
-1.0790868 -19.58885 -1.0790868
-2.2418837 -19.58885 -1.0790868
-3.3983437 -19.58885 -1.0790868
-4.5548081 -19.58885 -1.0790868
-5.711277 -19.58885 -1.0790868
-6.8677191 -19.58885 -1.0790868
-8.0242059 -19.58885 -1.0790868
-9.180648 -19.58885 -1.0790868
-10.337135 -19.58885 -1.0790868
-11.493577 -19.58885 -1.0790868
-12.650064 -19.58885 -1.0790868
-13.806506 -19.58885 -1.0790868
-14.962993 -19.58885 -1.0790868
-16.119435 -19.58885 -1.0790868
-17.275922 -19.58885 -1.0790868
-18.432364 -19.58885 -1.0790868
-19.58885 -19.58885 -1.0790868
-20.745292 -19.58885 -1.0790868
-21.901779 -19.58885 -1.0790868
-23.064554 -19.58885 -1.0790868
-1.0790868 -20.745292 -1.0790868
-2.2418837 -20.745292 -1.0790868
-3.3983437 -20.745292 -1.0790868
-4.5548081 -20.745292 -1.0790868
-5.711277 -20.745292 -1.0790868
-6.8677191 -20.745292 -1.0790868
-8.0242059 -20.745292 -1.0790868
-9.180648 -20.745292 -1.0790868
-10.337135 -20.745292 -1.0790868
-11.493577 -20.745292 -1.0790868
-12.650064 -20.745292 -1.0790868
-13.806506 -20.745292 -1.0790868
-14.962993 -20.745292 -1.0790868
-16.119435 -20.745292 -1.0790868
-17.275922 -20.745292 -1.0790868
-18.432364 -20.745292 -1.0790868
-19.58885 -20.745292 -1.0790868
-20.745292 -20.745292 -1.0790868
-21.901779 -20.745292 -1.0790868
-23.064554 -20.745292 -1.0790868
-1.0790868 -21.901779 -1.0790868
-2.2418837 -21.901779 -1.0790868
-3.3983437 -21.901779 -1.0790868
-4.5548081 -21.901779 -1.0790868
-5.711277 -21.901779 -1.0790868
-6.8677191 -21.901779 -1.0790868
-8.0242059 -21.901779 -1.0790868
-9.180648 -21.901779 -1.0790868
-10.337135 -21.901779 -1.0790868
-11.493577 -21.901779 -1.0790868
-12.650064 -21.901779 -1.0790868
-13.806506 -21.901779 -1.0790868
-14.962993 -21.901779 -1.0790868
-16.119435 -21.901779 -1.0790868
-17.275922 -21.901779 -1.0790868
-18.432364 -21.901779 -1.0790868
-19.58885 -21.901779 -1.0790868
-20.745292 -21.901779 -1.0790868
-21.901779 -21.901779 -1.0790868
-23.064554 -21.901779 -1.0790868
-1.0790868 -23.064554 -1.0790868
-2.2418837 -23.064554 -1.0790868
-3.3983437 -23.064554 -1.0790868
-4.5548081 -23.064554 -1.0790868
-5.711277 -23.064554 -1.0790868
-6.8677191 -23.064554 -1.0790868
-8.0242059 -23.064554 -1.0790868
-9.180648 -23.064554 -1.0790868
-10.337135 -23.064554 -1.0790868
-11.493577 -23.064554 -1.0790868
-12.650064 -23.064554 -1.0790868
-13.806506 -23.064554 -1.0790868
-14.962993 -23.064554 -1.0790868
-16.119435 -23.064554 -1.0790868
-17.275922 -23.064554 -1.0790868
-18.432364 -23.064554 -1.0790868
-19.58885 -23.064554 -1.0790868
-20.745292 -23.064554 -1.0790868
-21.901779 -23.064554 -1.0790868
-23.064554 -23.064554 -1.0790868
-1.0790868 -1.0790868 -2.2418837
-2.2418837 -1.0790868 -2.2418837
-3.3983437 -1.0790868 -2.2418837
-4.5548081 -1.0790868 -2.2418837
-5.711277 -1.0790868 -2.2418837
-6.8677191 -1.0790868 -2.2418837
-8.0242059 -1.0790868 -2.2418837
-9.180648 -1.0790868 -2.2418837
-10.337135 -1.0790868 -2.2418837
-11.493577 -1.0790868 -2.2418837
-12.650064 -1.0790868 -2.2418837
-13.806506 -1.0790868 -2.2418837
-14.962993 -1.0790868 -2.2418837
-16.119435 -1.0790868 -2.2418837
-17.275922 -1.0790868 -2.2418837
-18.432364 -1.0790868 -2.2418837
-19.58885 -1.0790868 -2.2418837
-20.745292 -1.0790868 -2.2418837
-21.901779 -1.0790868 -2.2418837
-23.064554 -1.0790868 -2.2418837
-1.0790868 -2.2418837 -2.2418837
-2.2418837 -2.2418837 -2.2418837
-3.3983437 -2.2418837 -2.2418837
-4.5548081 -2.2418837 -2.2418837
-5.711277 -2.2418837 -2.2418837