# vtk DataFile Version 4.0
hesp visualization file
ASCII
DATASET UNSTRUCTURED_GRID
POINTS 3000 double
-0.17328883 -0.17328883 -0.17328883
1.6160799 -0.17328883 -0.17328883
3.4404087 -0.17328883 -0.17328883
5.2647445 -0.17328883 -0.17328883
7.0890874 -0.17328883 -0.17328883
8.9133878 -0.17328883 -0.17328883
10.737759 -0.17328883 -0.17328883
12.562059 -0.17328883 -0.17328883
14.386431 -0.17328883 -0.17328883
16.210731 -0.17328883 -0.17328883
18.035102 -0.17328883 -0.17328883
19.859403 -0.17328883 -0.17328883
21.683774 -0.17328883 -0.17328883
23.508074 -0.17328883 -0.17328883
25.332446 -0.17328883 -0.17328883
27.156746 -0.17328883 -0.17328883
28.981117 -0.17328883 -0.17328883
30.805418 -0.17328883 -0.17328883
32.629789 -0.17328883 -0.17328883
34.449044 -0.17328883 -0.17328883
-0.17328883 1.6160799 -0.17328883
1.6160799 1.6160799 -0.17328883
3.4404087 1.6160799 -0.17328883
5.2647445 1.6160799 -0.17328883
7.0890874 1.6160799 -0.17328883
8.9133878 1.6160799 -0.17328883
10.737759 1.6160799 -0.17328883
12.562059 1.6160799 -0.17328883
14.386431 1.6160799 -0.17328883
16.210731 1.6160799 -0.17328883
18.035102 1.6160799 -0.17328883
19.859403 1.6160799 -0.17328883
21.683774 1.6160799 -0.17328883
23.508074 1.6160799 -0.17328883
25.332446 1.6160799 -0.17328883
27.156746 1.6160799 -0.17328883
28.981117 1.6160799 -0.17328883
30.805418 1.6160799 -0.17328883
32.629789 1.6160799 -0.17328883
34.449044 1.6160799 -0.17328883
-0.17328883 3.4404087 -0.17328883
1.6160799 3.4404087 -0.17328883
3.4404087 3.4404087 -0.17328883
5.2647445 3.4404087 -0.17328883
7.0890874 3.4404087 -0.17328883
8.9133878 3.4404087 -0.17328883
10.737759 3.4404087 -0.17328883
12.562059 3.4404087 -0.17328883
14.386431 3.4404087 -0.17328883
16.210731 3.4404087 -0.17328883
18.035102 3.4404087 -0.17328883
19.859403 3.4404087 -0.17328883
21.683774 3.4404087 -0.17328883
23.508074 3.4404087 -0.17328883
25.332446 3.4404087 -0.17328883
27.156746 3.4404087 -0.17328883
28.981117 3.4404087 -0.17328883
30.805418 3.4404087 -0.17328883
32.629789 3.4404087 -0.17328883
34.449044 3.4404087 -0.17328883
-0.17328883 5.2647445 -0.17328883
1.6160799 5.2647445 -0.17328883
3.4404087 5.2647445 -0.17328883
5.2647445 5.2647445 -0.17328883
7.0890874 5.2647445 -0.17328883
8.9133878 5.2647445 -0.17328883
10.737759 5.2647445 -0.17328883
12.562059 5.2647445 -0.17328883
14.386431 5.2647445 -0.17328883
16.210731 5.2647445 -0.17328883
18.035102 5.2647445 -0.17328883
19.859403 5.2647445 -0.17328883
21.683774 5.2647445 -0.17328883
23.508074 5.2647445 -0.17328883
25.332446 5.2647445 -0.17328883
27.156746 5.2647445 -0.17328883
28.981117 5.2647445 -0.17328883
30.805418 5.2647445 -0.17328883
32.629789 5.2647445 -0.17328883
34.449044 5.2647445 -0.17328883
-0.17328883 7.0890874 -0.17328883
1.6160799 7.0890874 -0.17328883
3.4404087 7.0890874 -0.17328883
5.2647445 7.0890874 -0.17328883
7.0890874 7.0890874 -0.17328883
8.9133878 7.0890874 -0.17328883
10.737759 7.0890874 -0.17328883
12.562059 7.0890874 -0.17328883
14.386431 7.0890874 -0.17328883
16.210731 7.0890874 -0.17328883
18.035102 7.0890874 -0.17328883
19.859403 7.0890874 -0.17328883
21.683774 7.0890874 -0.17328883
23.508074 7.0890874 -0.17328883
25.332446 7.0890874 -0.17328883
27.156746 7.0890874 -0.17328883
28.981117 7.0890874 -0.17328883
30.805418 7.0890874 -0.17328883
32.629789 7.0890874 -0.17328883
34.449044 7.0890874 -0.17328883
-0.17328883 8.9133878 -0.17328883
1.6160799 8.9133878 -0.17328883
3.4404087 8.9133878 -0.17328883
5.2647445 8.9133878 -0.17328883
7.0890874 8.9133878 -0.17328883
8.9133878 8.9133878 -0.17328883
10.737759 8.9133878 -0.17328883
12.562059 8.9133878 -0.17328883
14.386431 8.9133878 -0.17328883
16.210731 8.9133878 -0.17328883
18.035102 8.9133878 -0.17328883
19.859403 8.9133878 -0.17328883
21.683774 8.9133878 -0.17328883
23.508074 8.9133878 -0.17328883
25.332446 8.9133878 -0.17328883
27.156746 8.9133878 -0.17328883
28.981117 8.9133878 -0.17328883
30.805418 8.9133878 -0.17328883
32.629789 8.9133878 -0.17328883
34.449044 8.9133878 -0.17328883
-0.17328883 10.737759 -0.17328883
1.6160799 10.737759 -0.17328883
3.4404087 10.737759 -0.17328883
5.2647445 10.737759 -0.17328883
7.0890874 10.737759 -0.17328883
8.9133878 10.737759 -0.17328883
10.737759 10.737759 -0.17328883
12.562059 10.737759 -0.17328883
14.386431 10.737759 -0.17328883
16.210731 10.737759 -0.17328883
18.035102 10.737759 -0.17328883
19.859403 10.737759 -0.17328883
21.683774 10.737759 -0.17328883
23.508074 10.737759 -0.17328883
25.332446 10.737759 -0.17328883
27.156746 10.737759 -0.17328883
28.981117 10.737759 -0.17328883
30.805418 10.737759 -0.17328883
32.629789 10.737759 -0.17328883
34.449044 10.737759 -0.17328883
-0.17328883 12.562059 -0.17328883
1.6160799 12.562059 -0.17328883
3.4404087 12.562059 -0.17328883
5.2647445 12.562059 -0.17328883
7.0890874 12.562059 -0.17328883
8.9133878 12.562059 -0.17328883
10.737759 12.562059 -0.17328883
12.562059 12.562059 -0.17328883
14.386431 12.562059 -0.17328883
16.210731 12.562059 -0.17328883
18.035102 12.562059 -0.17328883
19.859403 12.562059 -0.17328883
21.683774 12.562059 -0.17328883
23.508074 12.562059 -0.17328883
25.332446 12.562059 -0.17328883
27.156746 12.562059 -0.17328883
28.981117 12.562059 -0.17328883
30.805418 12.562059 -0.17328883
32.629789 12.562059 -0.17328883
34.449044 12.562059 -0.17328883
-0.17328883 14.386431 -0.17328883
1.6160799 14.386431 -0.17328883
3.4404087 14.386431 -0.17328883
5.2647445 14.386431 -0.17328883
7.0890874 14.386431 -0.17328883
8.9133878 14.386431 -0.17328883
10.737759 14.386431 -0.17328883
12.562059 14.386431 -0.17328883
14.386431 14.386431 -0.17328883
16.210731 14.386431 -0.17328883
18.035102 14.386431 -0.17328883
19.859403 14.386431 -0.17328883
21.683774 14.386431 -0.17328883
23.508074 14.386431 -0.17328883
25.332446 14.386431 -0.17328883
27.156746 14.386431 -0.17328883
28.981117 14.386431 -0.17328883
30.805418 14.386431 -0.17328883
32.629789 14.386431 -0.17328883
34.449044 14.386431 -0.17328883
-0.17328883 16.210731 -0.17328883
1.6160799 16.210731 -0.17328883
3.4404087 16.210731 -0.17328883
5.2647445 16.210731 -0.17328883
7.0890874 16.210731 -0.17328883
8.9133878 16.210731 -0.17328883
10.737759 16.210731 -0.17328883
12.562059 16.210731 -0.17328883
14.386431 16.210731 -0.17328883
16.210731 16.210731 -0.17328883
18.035102 16.210731 -0.17328883
19.859403 16.210731 -0.17328883
21.683774 16.210731 -0.17328883
23.508074 16.210731 -0.17328883
25.332446 16.210731 -0.17328883
27.156746 16.210731 -0.17328883
28.981117 16.210731 -0.17328883
30.805418 16.210731 -0.17328883
32.629789 16.210731 -0.17328883
34.449044 16.210731 -0.17328883
-0.17328883 18.035102 -0.17328883
1.6160799 18.035102 -0.17328883
3.4404087 18.035102 -0.17328883
5.2647445 18.035102 -0.17328883
7.0890874 18.035102 -0.17328883
8.9133878 18.035102 -0.17328883
10.737759 18.035102 -0.17328883
12.562059 18.035102 -0.17328883
14.386431 18.035102 -0.17328883
16.210731 18.035102 -0.17328883
18.035102 18.035102 -0.17328883
19.859403 18.035102 -0.17328883
21.683774 18.035102 -0.17328883
23.508074 18.035102 -0.17328883
25.332446 18.035102 -0.17328883
27.156746 18.035102 -0.17328883
28.981117 18.035102 -0.17328883
30.805418 18.035102 -0.17328883
32.629789 18.035102 -0.17328883
34.449044 18.035102 -0.17328883
-0.17328883 19.859403 -0.17328883
1.6160799 19.859403 -0.17328883
3.4404087 19.859403 -0.17328883
5.2647445 19.859403 -0.17328883
7.0890874 19.859403 -0.17328883
8.9133878 19.859403 -0.17328883
10.737759 19.859403 -0.17328883
12.562059 19.859403 -0.17328883
14.386431 19.859403 -0.17328883
16.210731 19.859403 -0.17328883
18.035102 19.859403 -0.17328883
19.859403 19.859403 -0.17328883
21.683774 19.859403 -0.17328883
23.508074 19.859403 -0.17328883
25.332446 19.859403 -0.17328883
27.156746 19.859403 -0.17328883
28.981117 19.859403 -0.17328883
30.805418 19.859403 -0.17328883
32.629789 19.859403 -0.17328883
34.449044 19.859403 -0.17328883
-0.17328883 21.683774 -0.17328883
1.6160799 21.683774 -0.17328883
3.4404087 21.683774 -0.17328883
5.2647445 21.683774 -0.17328883
7.0890874 21.683774 -0.17328883
8.9133878 21.683774 -0.17328883
10.737759 21.683774 -0.17328883
12.562059 21.683774 -0.17328883
14.386431 21.683774 -0.17328883
16.210731 21.683774 -0.17328883
18.035102 21.683774 -0.17328883
19.859403 21.683774 -0.17328883
21.683774 21.683774 -0.17328883
23.508074 21.683774 -0.17328883
25.332446 21.683774 -0.17328883
27.156746 21.683774 -0.17328883
28.981117 21.683774 -0.17328883
30.805418 21.683774 -0.17328883
32.629789 21.683774 -0.17328883
34.449044 21.683774 -0.17328883
-0.17328883 23.508074 -0.17328883
1.6160799 23.508074 -0.17328883
3.4404087 23.508074 -0.17328883
5.2647445 23.508074 -0.17328883
7.0890874 23.508074 -0.17328883
8.9133878 23.508074 -0.17328883
10.737759 23.508074 -0.17328883
12.562059 23.508074 -0.17328883
14.386431 23.508074 -0.17328883
16.210731 23.508074 -0.17328883
18.035102 23.508074 -0.17328883
19.859403 23.508074 -0.17328883
21.683774 23.508074 -0.17328883
23.508074 23.508074 -0.17328883
25.332446 23.508074 -0.17328883
27.156746 23.508074 -0.17328883
28.981117 23.508074 -0.17328883
30.805418 23.508074 -0.17328883
32.629789 23.508074 -0.17328883
34.449044 23.508074 -0.17328883
-0.17328883 25.332446 -0.17328883
1.6160799 25.332446 -0.17328883
3.4404087 25.332446 -0.17328883
5.2647445 25.332446 -0.17328883
7.0890874 25.332446 -0.17328883
8.9133878 25.332446 -0.17328883
10.737759 25.332446 -0.17328883
12.562059 25.332446 -0.17328883
14.386431 25.332446 -0.17328883
16.210731 25.332446 -0.17328883
18.035102 25.332446 -0.17328883
19.859403 25.332446 -0.17328883
21.683774 25.332446 -0.17328883
23.508074 25.332446 -0.17328883
25.332446 25.332446 -0.17328883
27.156746 25.332446 -0.17328883
28.981117 25.332446 -0.17328883
30.805418 25.332446 -0.17328883
32.629789 25.332446 -0.17328883
34.449044 25.332446 -0.17328883
-0.17328883 27.156746 -0.17328883
1.6160799 27.156746 -0.17328883
3.4404087 27.156746 -0.17328883
5.2647445 27.156746 -0.17328883
7.0890874 27.156746 -0.17328883
8.9133878 27.156746 -0.17328883
10.737759 27.156746 -0.17328883
[...]
POINT_DATA 3000
SCALARS m double
LOOKUP_TABLE default
1
1
1
1
1
1
1
1
1
1
1
1
1
1
1
1
1
1
1
1
1
1
1
1
1
1
1
1
1
1
1
1
1
1
1
1
1
1
1
1
1
1
1
1
1
1
1
1
1
1
1
1
1
1
1
1
1
1
1
1
1
1
1
1
1
1
1
1
1
1
1
1
1
1
1
1
1
1
1
1
1
1
1
1
1
1
1
1
1
1
1
1
1
1
1
1
1
1
1
1
1
1
1
1
1
1
1
1
1
1
1
1
1
1
1
1
1
1
1
1
1
1
1
1
1
1
1
1
1
1
1
1
1
1
1
1
1
1
1
1
1
1
1
1
1
1
1
1
1
1
1
1
1
1
1
1
1
1
1
1
1
1
1
1
1
1
1
1
1
1
1
1
1
1
1
1
1
1
1
1
1
1
1
1
1
1
1
1
1
1
1
1
1
1
1
1
1
1
1
1
1
1
1
1
1
1
1
1
1
1
1
1
1
1
1
1
1
1
1
1
1
1
1
1
1
1
1
1
1
1
1
1
1
1
1
1
1
1
1
1
1
1
1
1
1
1
1
1
1
1
1
1
1
1
1
1
1
1
1
1
1
1
1
1
1
1
1
1
1
1
1
1
1
1
1
1
1
1
1
1
1
1
1
1
1
1
1
1
1
1
1
1
1
1
1
1
1
1
1
1
1
1
1
1
1
1
1
1
1
1
1
1
1
1
1
1
1
1
1
1
1
1
1
1
1
1
1
1
1
1
1
1
1
1
1
1
1
1
1
1
1
1
1
1
1
1
1
1
1
1
1
1
1
1
1
1
1
1
1
1
1
1
1
1
1
1
1
1
1
1
1
1
1
1
1
1
1
1
1
1
1
1
1
1
1
1
1
1
1
1
1
1
1
1
1
1
1
1
1
1
1
1
1
1
1
1
1
1
1
1
1
1
1
1
1
1
1
1
1
1
1
1
1
1
1
1
1
1
1
1
1
1
1
1
1
1
1
1
1
1
1
1
1
1
1
1
1
1
1
1
1
1
1
1
1
1
1
1
1
1
1
1
1
1
1
1
1
1
1
1
1
1
1
1
1
1
1
1
1
1
1
1
1
1
1
1
1
1
1
1
1
1
1
1
1
1
1
1
1
1
1
1
1
1
1
1
1
1
1
1
1
1
1
1
1
1
1
1
1
1
1
1
1
1
1
1
1
1
1
1
1
1
1
1
1
1
1
1
1
1
1
1
1
1
1
1
1
1
1
1
1
1
1
1
1
1
1
1
1
1
1
1
1
1
1
1
1
1
1
1
1
1
1
1
1
1
1
1
1
1
1
1
1
1
1
1
1
1
1
1
1
1
1
1
1
1
1
1
1
1
1
1
1
1
1
1
1
1
1
1
1
1
1
1
1
1
1
1
1
1
1
1
1
1
1
1
1
1
1
1
1
1
1
1
1
1
1
1
1
1
1
1
1
1
1
1
1
1
1
1
1
1
1
1
1
1
1
1
1
1
1
1
1
1
1
1
1
1
1
1
1
1
1
1
1
1
1
1
1
1
1
1
1
1
1
1
1
1
1
1
1
1
1
1
1
1
1
1
1
1
1
1
1
1
1
1
1
1
1
1
1
1
1
1
1
1
1
1
1
1
1
1
1
1
1
1
1
1
1
1
1
1
1
1
1
1
1
1
1
1
1
1
1
1
1
1
1
1
1
1
1
1
1
1
1
1
1
1
1
1
1
1
1
1
1
1
1
1
1
1
1
1
1
1
1
1
1
1
1
1
1
1
1
1
1
1
1
1
1
1
1
1
1
1
1
1
1
1
1
1
1
1
1
1
1
1
1
1
1
1
1
1
1
1
1
1
1
1
1
1
1
1
1
1
1
1
1
1
1
1
1
1
1
1
1
1
1
1
1
1
1
1
1
1
1
1
1
1
1
1
1
1
1
1
1
1
1
1
1
1
1
1
1
1
1
1
1
1
1
1
1
1
1
1
1
1
1
1
1
1
1
1
1
1
1
1
1
1
1
1
1
1
1
1
1
1
1
1
1
1
1
1
1
1
1
1
1
1
1
1
1
1
1
1
1
1
1
1
1
1
1
1
1
1
1
1
1
1
1
1
1
1
1
1
1
1
1
1
1
1
1
1
1
1
1
1
1
1
1
1
1
1
1
1
1
1
1
1
1
1
1
1
1
1
1
1
1
1
1
1
1
1
1
1
1
1
1
1
1
1
1
1
1
1
1
1
1
1
1
1
1
1
1
1
1
1
1
1
1
1
1
1
1
1
1
1
1
1
1
1
1
1
1
1
1
1
1
1
1
1
1
1
1
1
1
1
1
1
1
1
1
1
1
1
1
1
1
1
1
1
1
1
1
1
1
1
1
1
1
1
1
1
1
1
1
1
1
1
1
1
1
1
1
1
1
1
1
1
1
1
1
1
1
1
1
1
1
1
1
1
1
1
1
1
1
1
1
1
1
1
1
1
1
1
1
1
1
1
1
1
1
1
1
1
1
1
1
1
1
1
1
1
1
1
1
1
1
1
1
1
1
1
1
1
1
1
1
1
1
1
1
1
1
1
1
1
1
1
1
1
1
1
1
1
1
1
1
1
1
1
1
1
1
1
1
1
1
1
1
1
1
1
1
1
1
1
1
1
1
1
1
1
1
1
1
1
1
1
1
1
1
1
1
1
1
1
1
1
1
1
1
1
1
1
1
1
1
1
1
1
1
1
1
1
1
1
1
1
1
1
1
1
1
1
1
1
1
1
1
1
1
1
1
1
1
1
1
1
1
1
1
1
1
1
1
1
1
1
1
1
1
1
1
1
1
1
1
1
1
1
1
1
1
1
1
1
1
1
1
1
1
1
1
1
1
1
1
1
1
1
1
1
1
1
1
1
1
1
1
1
1
1
1
1
1
1
1
1
1
1
1
1
1
1
1
1
1
1
1
1
1
1
1
1
1
1
1
1
1
1
1
1
1
1
1
1
1
1
1
1
1
1
1
1
1
1
1
1
1
1
1
1
1
1
1
1
1
1
1
1
1
1
1
1
1
1
1
1
1
1
1
1
1
1
1
1
1
1
1
1
1
1
1
1
1
1
1
1
1
1
1
1
1
1
1
1
1
1
1
1
1
1
1
1
1
1
1
1
1
1
1
1
1
1
1
1
1
1
1
1
1
1
1
1
1
1
1
1
1
1
1
1
1
1
1
1
1
1
1
1
1
1
1
1
1
1
1
1
1
1
1
1
1
1
1
1
1
1
1
1
1
1
1
1
1
1
1
1
1
1
1
1
1
1
1
1
1
1
1
1
1
1
1
1
1
1
1
1
1
1
1
1
1
1
1
1
1
1
1
1
1
1
1
1
1
1
1
1
1
1
1
1
1
1
1
1
1
1
1
1
1
1
1
1
1
1
1
1
1
1
1
1
1
1
1
1
1
1
1
1
1
1
1
1
1
1
1
1
1
1
1
1
1
1
1
1
1
1
1
1
1
1
1
1
1
1
1
1
1
1
1
1
1
1
1
1
1
1
1
1
1
1
1
1
1
1
1
1
1
1
1
1
1
1
1
1
1
1
1
1
1
1
1
1
1
1
1
1
1
1
1
1
1
1
1
1
1
1
1
1
1
1
1
1
1
1
1
1
1
1
1
1
1
1
1
1
1
1
1
1
1
1
1
1
1
1
1
1
1
1
1
1
1
1
1
1
1
1
1
1
1
1
1
1
1
1
1
1
1
1
1
1
1
1
1
1
1
1
1
1
1
1
1
1
1
1
1
1
1
1
1
1
1
1
1
1
1
1
1
1
1
1
1
1
1
1
1
1
1
1
1
1
1
1
1
1
1
1
1
1
1
1
1
1
1
1
1
1
1
1
1
1
1
1
1
1
1
1
1
1
1
1
1
1
1
1
1
1
1
1
1
1
1
1
1
1
1
1
1
1
1
1
1
1
1
1
1
1
1
1
1
1
1
1
1
1
1
1
1
1
1
1
1
1
1
1
1
1
1
1
1
1
1
1
1
1
1
1
1
1
1
1
1
1
1
1
1
1
1
1
1
1
1
1
1
1
1
1
1
1
1
1
1
1
1
1
1
1
1
1
1
1
1
1
1
1
1
1
1
1
1
1
1
1
1
1
1
1
1
1
1
1
1
1
1
1
1
1
1
1
1
1
1
1
1
1
1
1
1
1
1
1
1
1
1
1
1
1
1
1
1
1
1
1
1
1
1
1
1
1
1
1
1
1
1
1
1
1
1
1
1
1
1
1
1
1
1
1
1
1
1
1
1
1
1
1
1
1
1
1
1
1
1
1
1
1
1
1
1
1
1
1
1
1
1
1
1
1
1
1
1
1
1
1
1
1
1
1
1
1
1
1
1
1
1
1
1
1
1
1
1
1
1
1
1
1
1
1
1
1
1
1
1
1
1
1
1
1
1
1
1
1
1
1
1
1
1
1
1
1
1
1
1
1
1
1
1
1
1
1
1
1
1
1
1
1
1
1
1
1
1
1
1
1
1
1
1
1
1
1
1
1
1
1
1
1
1
1
1
1
1
1
1
1
1
1
1
1
1
1
1
1
1
1
1
1
1
1
1
1
1
1
1
1
1
1
1
1
1
1
1
1
1
1
1
1
1
1
1
1
1
1
1
1
1
1
1
1
1
1
1
1
1
1
1
1
1
1
1
1
1
1
1
1
1
1
1
1
1
1
1
1
1
1
1
1
1
1
1
1
1
1
1
1
1
1
1
1
1
1
1
1
1
1
1
1
1
1
1
1
1
1
1
1
1
1
1
1
1
1
1
1
1
1
1
1
1
1
1
1
1
1
1
1
1
1
1
1
1
1
1
1
1
1
1
1
1
1
1
1
1
1
1
1
1
1
1
1
1
1
1
1
1
1
1
1
1
1
1
1
1
1
1
1
1
1
1
1
1
1
1
1
1
1
1
1
1
1
1
1
1
1
1
1
1
1
1
1
1
1
1
1
1
1
1
1
1
1
1
1
1
1
1
1
1
1
1
1
1
1
1
1
1
1
1
1
1
1
1
1
1
1
1
1
1
1
1
1
1
1
1
1
1
1
1
1
1
1
1
1
1
1
1
1
1
1
1
1
1
1
1
1
1
1
1
1
1
1
1
1
1
1
1
1
1
1
1
1
1
1
1
1
1
1
1
1
1
1
1
1
1
1
1
1
1
1
1
1
1
1
1
1
1
1
1
1
1
1
1
1
1
1
1
1
1
1
1
1
1
1
1
1
1
1
1
1
1
1
1
1
1
1
1
1
1
1
1
1
1
1
1
1
1
1
1
1
1
1
1
1
1
1
1
1
1
1
1
1
1
1
1
1
1
1
1
1
1
1
1
1
1
1
1
1
1
1
1
1
1
1
1
1
1
1
1
1
1
1
1
1
1
1
1
1
1
1
1
1
1
1
1
1
1
1
1
1
1
1
1
1
1
1
1
1
1
1
1
1
1
1
1
1
1
1
1
1
1
1
1
1
1
1
1
1
1
1
1
1
1
1
1
1
1
1
1
1
1
1
1
1
1
1
1
1
1
1
1
1
1
1
1
1
1
1
1
1
1
1
1
1
1
1
1
1
1
1
1
1
1
1
1
1
1
1
1
1
1
1
1
1
1
1
1
1
1
1
1
1
1
1
1
1
1
1
1
1
1
1
1
1
1
1
1
1
1
1
1
1
1
1
1
1
1
1
1
1
1
1
1
1
1
1
1
1
1
1
1
1
1
1
1
1
1
1
1
1
1
1
1
1
1
1
1
1
1
1
1
1
1
1
1
1
1
1
1
1
1
1
1
1
1
1
1
1
1
1
1
1
1
1
1
1
1
1
1
1
1
1
1
1
1
1
1
1
1
1
1
1
1
1
1
1
1
1
1
1
1
1
1
1
1
1
1
1
1
1
1
1
1
1
1
1
1
1
1
1
1
1
1
1
1
1
1
1
1
1
1
1
1
1
1
1
1
1
1
1
1
1
1
1
1
1
1
1
1
1
1
1
1
1
1
1
1
1
1
1
1
1
1
1
1
1
1
1
1
1
1
1
1
1
1
1
1
1
1
1
1
1
1
1
1
1
1
1
1
1
1
1
1
1
1
1
1
1
1
1
1
1
1
1
1
1
1
1
1
1
1
1
1
1
1
1
1
1
1
1
1
1
1
1
1
1
1
1
1
1
1
1
1
1
1
1
1
1
1
1
1
1
1
1
1
1
1
1
1
1
1
1
1
1
1
1
1
1
1
1
1
1
1
1
1
1
1
1
1
1
1
1
1
1
1
1
1
1
1
1
1
1
1
1
1
1
1
1
1
1
1
1
1
1
1
1
1
1
1
1
1
1
1
1
1
1
1
1
1
1
1
1
1
1
1
1
1
1
1
1
1
1
1
1
1
1
1
1
1
1
1
1
1
1
1
1
1
1
1
1
1
1
1
1
1
1
1
1
1
1
1
1
1
1
1
1
1
1
1
1
1
1
1
1
1
1
1
1
1
1
1
1
1
1
1
1
1
1
1
1
1
1
1
1
1
1
1
1
1
1
1
1
1
1
1
1
1
1
1
1
1
1
1
1
1
1
1
1
1
1
1
1
1
1
1
1
1
1
1
1
1
1
1
1
1
1
1
1
1
1
1
1
1
1
1
1
1
1
1
1
1
1
1
1
1
1
1
1
1
1
1
1
1
1
1
1
1
1
1
1
1
1
1
1
1
1
1
1
1
1
1
1
1
1
1
1
1
1
1
1
1
1
1
1
1
1
1
1
1
1
1
1
1
1
VECTORS v double
-1.227007 -1.227007 -1.227007
-3.5337608 -1.227007 -1.227007
-5.3566265 -1.227007 -1.227007
-7.1794993 -1.227007 -1.227007
-9.0023791 -1.227007 -1.227007
-10.825217 -1.227007 -1.227007
-12.648125 -1.227007 -1.227007
-14.470962 -1.227007 -1.227007
-16.29387 -1.227007 -1.227007
-18.116708 -1.227007 -1.227007
-19.939616 -1.227007 -1.227007
-21.762453 -1.227007 -1.227007
-23.585361 -1.227007 -1.227007
-25.408199 -1.227007 -1.227007
-27.231107 -1.227007 -1.227007
-29.053944 -1.227007 -1.227007
-30.876852 -1.227007 -1.227007
-32.69969 -1.227007 -1.227007
-34.522598 -1.227007 -1.227007
-36.350434 -1.227007 -1.227007
-1.227007 -3.5337608 -1.227007
-3.5337608 -3.5337608 -1.227007
-5.3566265 -3.5337608 -1.227007
-7.1794993 -3.5337608 -1.227007
-9.0023791 -3.5337608 -1.227007
-10.825217 -3.5337608 -1.227007
-12.648125 -3.5337608 -1.227007
-14.470962 -3.5337608 -1.227007
-16.29387 -3.5337608 -1.227007
-18.116708 -3.5337608 -1.227007
-19.939616 -3.5337608 -1.227007
-21.762453 -3.5337608 -1.227007
-23.585361 -3.5337608 -1.227007
-25.408199 -3.5337608 -1.227007
-27.231107 -3.5337608 -1.227007
-29.053944 -3.5337608 -1.227007
-30.876852 -3.5337608 -1.227007
-32.69969 -3.5337608 -1.227007
-34.522598 -3.5337608 -1.227007
-36.350434 -3.5337608 -1.227007
-1.227007 -5.3566265 -1.227007
-3.5337608 -5.3566265 -1.227007
-5.3566265 -5.3566265 -1.227007
-7.1794993 -5.3566265 -1.227007
-9.0023791 -5.3566265 -1.227007
-10.825217 -5.3566265 -1.227007
-12.648125 -5.3566265 -1.227007
-14.470962 -5.3566265 -1.227007
-16.29387 -5.3566265 -1.227007
-18.116708 -5.3566265 -1.227007
-19.939616 -5.3566265 -1.227007
-21.762453 -5.3566265 -1.227007
-23.585361 -5.3566265 -1.227007
-25.408199 -5.3566265 -1.227007
-27.231107 -5.3566265 -1.227007
-29.053944 -5.3566265 -1.227007
-30.876852 -5.3566265 -1.227007
-32.69969 -5.3566265 -1.227007
-34.522598 -5.3566265 -1.227007
-36.350434 -5.3566265 -1.227007
-1.227007 -7.1794993 -1.227007
-3.5337608 -7.1794993 -1.227007
-5.3566265 -7.1794993 -1.227007
-7.1794993 -7.1794993 -1.227007
-9.0023791 -7.1794993 -1.227007
-10.825217 -7.1794993 -1.227007
-12.648125 -7.1794993 -1.227007
-14.470962 -7.1794993 -1.227007
-16.29387 -7.1794993 -1.227007
-18.116708 -7.1794993 -1.227007
-19.939616 -7.1794993 -1.227007
-21.762453 -7.1794993 -1.227007
-23.585361 -7.1794993 -1.227007
-25.408199 -7.1794993 -1.227007
-27.231107 -7.1794993 -1.227007
-29.053944 -7.1794993 -1.227007
-30.876852 -7.1794993 -1.227007
-32.69969 -7.1794993 -1.227007
-34.522598 -7.1794993 -1.227007
-36.350434 -7.1794993 -1.227007
-1.227007 -9.0023791 -1.227007
-3.5337608 -9.0023791 -1.227007
-5.3566265 -9.0023791 -1.227007
-7.1794993 -9.0023791 -1.227007
-9.0023791 -9.0023791 -1.227007
-10.825217 -9.0023791 -1.227007
-12.648125 -9.0023791 -1.227007
-14.470962 -9.0023791 -1.227007
-16.29387 -9.0023791 -1.227007
-18.116708 -9.0023791 -1.227007
-19.939616 -9.0023791 -1.227007
-21.762453 -9.0023791 -1.227007
-23.585361 -9.0023791 -1.227007
-25.408199 -9.0023791 -1.227007
-27.231107 -9.0023791 -1.227007
-29.053944 -9.0023791 -1.227007
-30.876852 -9.0023791 -1.227007
-32.69969 -9.0023791 -1.227007
-34.522598 -9.0023791 -1.227007
-36.350434 -9.0023791 -1.227007
-1.227007 -10.825217 -1.227007
-3.5337608 -10.825217 -1.227007
-5.3566265 -10.825217 -1.227007
-7.1794993 -10.825217 -1.227007
-9.0023791 -10.825217 -1.227007
-10.825217 -10.825217 -1.227007
-12.648125 -10.825217 -1.227007
-14.470962 -10.825217 -1.227007
-16.29387 -10.825217 -1.227007
-18.116708 -10.825217 -1.227007
-19.939616 -10.825217 -1.227007
-21.762453 -10.825217 -1.227007
-23.585361 -10.825217 -1.227007
-25.408199 -10.825217 -1.227007
-27.231107 -10.825217 -1.227007
-29.053944 -10.825217 -1.227007
-30.876852 -10.825217 -1.227007
-32.69969 -10.825217 -1.227007
-34.522598 -10.825217 -1.227007
-36.350434 -10.825217 -1.227007
-1.227007 -12.648125 -1.227007
-3.5337608 -12.648125 -1.227007
-5.3566265 -12.648125 -1.227007
-7.1794993 -12.648125 -1.227007
-9.0023791 -12.648125 -1.227007
-10.825217 -12.648125 -1.227007
-12.648125 -12.648125 -1.227007
-14.470962 -12.648125 -1.227007
-16.29387 -12.648125 -1.227007
-18.116708 -12.648125 -1.227007
-19.939616 -12.648125 -1.227007
-21.762453 -12.648125 -1.227007
-23.585361 -12.648125 -1.227007
-25.408199 -12.648125 -1.227007
-27.231107 -12.648125 -1.227007
-29.053944 -12.648125 -1.227007
-30.876852 -12.648125 -1.227007
-32.69969 -12.648125 -1.227007
-34.522598 -12.648125 -1.227007
-36.350434 -12.648125 -1.227007
-1.227007 -14.470962 -1.227007
-3.5337608 -14.470962 -1.227007
-5.3566265 -14.470962 -1.227007
-7.1794993 -14.470962 -1.227007
-9.0023791 -14.470962 -1.227007
-10.825217 -14.470962 -1.227007
-12.648125 -14.470962 -1.227007
-14.470962 -14.470962 -1.227007
-16.29387 -14.470962 -1.227007
-18.116708 -14.470962 -1.227007
-19.939616 -14.470962 -1.227007
-21.762453 -14.470962 -1.227007
-23.585361 -14.470962 -1.227007
-25.408199 -14.470962 -1.227007
-27.231107 -14.470962 -1.227007
-29.053944 -14.470962 -1.227007
-30.876852 -14.470962 -1.227007
-32.69969 -14.470962 -1.227007
-34.522598 -14.470962 -1.227007
-36.350434 -14.470962 -1.227007
-1.227007 -16.29387 -1.227007
-3.5337608 -16.29387 -1.227007
-5.3566265 -16.29387 -1.227007
-7.1794993 -16.29387 -1.227007
-9.0023791 -16.29387 -1.227007
-10.825217 -16.29387 -1.227007
-12.648125 -16.29387 -1.227007
-14.470962 -16.29387 -1.227007
-16.29387 -16.29387 -1.227007
-18.116708 -16.29387 -1.227007
-19.939616 -16.29387 -1.227007
-21.762453 -16.29387 -1.227007
-23.585361 -16.29387 -1.227007
-25.408199 -16.29387 -1.227007
-27.231107 -16.29387 -1.227007
-29.053944 -16.29387 -1.227007
-30.876852 -16.29387 -1.227007
-32.69969 -16.29387 -1.227007
-34.522598 -16.29387 -1.227007
-36.350434 -16.29387 -1.227007
-1.227007 -18.116708 -1.227007
-3.5337608 -18.116708 -1.227007
-5.3566265 -18.116708 -1.227007
-7.1794993 -18.116708 -1.227007
-9.0023791 -18.116708 -1.227007
-10.825217 -18.116708 -1.227007
-12.648125 -18.116708 -1.227007
-14.470962 -18.116708 -1.227007
-16.29387 -18.116708 -1.227007
-18.116708 -18.116708 -1.227007
-19.939616 -18.116708 -1.227007
-21.762453 -18.116708 -1.227007
-23.585361 -18.116708 -1.227007
-25.408199 -18.116708 -1.227007
-27.231107 -18.116708 -1.227007
-29.053944 -18.116708 -1.227007
-30.876852 -18.116708 -1.227007
-32.69969 -18.116708 -1.227007
-34.522598 -18.116708 -1.227007
-36.350434 -18.116708 -1.227007
-1.227007 -19.939616 -1.227007
-3.5337608 -19.939616 -1.227007
-5.3566265 -19.939616 -1.227007
-7.1794993 -19.939616 -1.227007
-9.0023791 -19.939616 -1.227007
-10.825217 -19.939616 -1.227007
-12.648125 -19.939616 -1.227007
-14.470962 -19.939616 -1.227007
-16.29387 -19.939616 -1.227007
-18.116708 -19.939616 -1.227007
-19.939616 -19.939616 -1.227007
-21.762453 -19.939616 -1.227007
-23.585361 -19.939616 -1.227007
-25.408199 -19.939616 -1.227007
-27.231107 -19.939616 -1.227007
-29.053944 -19.939616 -1.227007
-30.876852 -19.939616 -1.227007
-32.69969 -19.939616 -1.227007
-34.522598 -19.939616 -1.227007
-36.350434 -19.939616 -1.227007
-1.227007 -21.762453 -1.227007
-3.5337608 -21.762453 -1.227007
-5.3566265 -21.762453 -1.227007
-7.1794993 -21.762453 -1.227007
-9.0023791 -21.762453 -1.227007
-10.825217 -21.762453 -1.227007
-12.648125 -21.762453 -1.227007
-14.470962 -21.762453 -1.227007
-16.29387 -21.762453 -1.227007
-18.116708 -21.762453 -1.227007
-19.939616 -21.762453 -1.227007
-21.762453 -21.762453 -1.227007
-23.585361 -21.762453 -1.227007
-25.408199 -21.762453 -1.227007
-27.231107 -21.762453 -1.227007
-29.053944 -21.762453 -1.227007
-30.876852 -21.762453 -1.227007
-32.69969 -21.762453 -1.227007
-34.522598 -21.762453 -1.227007
-36.350434 -21.762453 -1.227007
-1.227007 -23.585361 -1.227007
-3.5337608 -23.585361 -1.227007
-5.3566265 -23.585361 -1.227007
-7.1794993 -23.585361 -1.227007
-9.0023791 -23.585361 -1.227007
-10.825217 -23.585361 -1.227007
-12.648125 -23.585361 -1.227007
-14.470962 -23.585361 -1.227007
-16.29387 -23.585361 -1.227007
-18.116708 -23.585361 -1.227007
-19.939616 -23.585361 -1.227007
-21.762453 -23.585361 -1.227007
-23.585361 -23.585361 -1.227007
-25.408199 -23.585361 -1.227007
-27.231107 -23.585361 -1.227007
-29.053944 -23.585361 -1.227007
-30.876852 -23.585361 -1.227007
-32.69969 -23.585361 -1.227007
-34.522598 -23.585361 -1.227007
-36.350434 -23.585361 -1.227007
-1.227007 -25.408199 -1.227007
-3.5337608 -25.408199 -1.227007
-5.3566265 -25.408199 -1.227007
-7.1794993 -25.408199 -1.227007
-9.0023791 -25.408199 -1.227007
-10.825217 -25.408199 -1.227007
-12.648125 -25.408199 -1.227007
-14.470962 -25.408199 -1.227007
-16.29387 -25.408199 -1.227007
-18.116708 -25.408199 -1.227007
-19.939616 -25.408199 -1.227007
-21.762453 -25.408199 -1.227007
-23.585361 -25.408199 -1.227007
-25.408199 -25.408199 -1.227007
-27.231107 -25.408199 -1.227007
-29.053944 -25.408199 -1.227007
-30.876852 -25.408199 -1.227007
-32.69969 -25.408199 -1.227007
-34.522598 -25.408199 -1.227007
-36.350434 -25.408199 -1.227007
-1.227007 -27.231107 -1.227007
-3.5337608 -27.231107 -1.227007
-5.3566265 -27.231107 -1.227007
-7.1794993 -27.231107 -1.227007
-9.0023791 -27.231107 -1.227007
-10.825217 -27.231107 -1.227007
-12.648125 -27.231107 -1.227007
-14.470962 -27.231107 -1.227007
-16.29387 -27.231107 -1.227007
-18.116708 -27.231107 -1.227007
-19.939616 -27.231107 -1.227007
-21.762453 -27.231107 -1.227007
-23.585361 -27.231107 -1.227007
-25.408199 -27.231107 -1.227007
-27.231107 -27.231107 -1.227007
-29.053944 -27.231107 -1.227007
-30.876852 -27.231107 -1.227007
-32.69969 -27.231107 -1.227007
-34.522598 -27.231107 -1.227007
-36.350434 -27.231107 -1.227007
-1.227007 -29.053944 -1.227007
-3.5337608 -29.053944 -1.227007
-5.3566265 -29.053944 -1.227007
-7.1794993 -29.053944 -1.227007
-9.0023791 -29.053944 -1.227007
-10.825217 -29.053944 -1.227007
-12.648125 -29.053944 -1.227007
-14.470962 -29.053944 -1.227007
-16.29387 -29.053944 -1.227007
-18.116708 -29.053944 -1.227007
-19.939616 -29.053944 -1.227007
-21.762453 -29.053944 -1.227007
-23.585361 -29.053944 -1.227007
-25.408199 -29.053944 -1.227007
-27.231107 -29.053944 -1.227007
-29.053944 -29.053944 -1.227007
-30.876852 -29.053944 -1.227007
-32.69969 -29.053944 -1.227007
-34.522598 -29.053944 -1.227007
-36.350434 -29.053944 -1.227007
-1.227007 -30.876852 -1.227007
-3.5337608 -30.876852 -1.227007
-5.3566265 -30.876852 -1.227007
-7.1794993 -30.876852 -1.227007
-9.0023791 -30.876852 -1.227007
-10.825217 -30.876852 -1.227007
-12.648125 -30.876852 -1.227007
-14.470962 -30.876852 -1.227007
-16.29387 -30.876852 -1.227007
-18.116708 -30.876852 -1.227007
-19.939616 -30.876852 -1.227007
-21.762453 -30.876852 -1.227007
-23.585361 -30.876852 -1.227007
-25.408199 -30.876852 -1.227007
-27.231107 -30.876852 -1.227007
-29.053944 -30.876852 -1.227007
-30.876852 -30.876852 -1.227007
-32.69969 -30.876852 -1.227007
-34.522598 -30.876852 -1.227007
-36.350434 -30.876852 -1.227007
-1.227007 -32.69969 -1.227007
-3.5337608 -32.69969 -1.227007
-5.3566265 -32.69969 -1.227007
-7.1794993 -32.69969 -1.227007
-9.0023791 -32.69969 -1.227007
-10.825217 -32.69969 -1.227007
-12.648125 -32.69969 -1.227007
-14.470962 -32.69969 -1.227007
-16.29387 -32.69969 -1.227007
-18.116708 -32.69969 -1.227007
-19.939616 -32.69969 -1.227007
-21.762453 -32.69969 -1.227007
-23.585361 -32.69969 -1.227007
-25.408199 -32.69969 -1.227007
-27.231107 -32.69969 -1.227007
-29.053944 -32.69969 -1.227007
-30.876852 -32.69969 -1.227007
-32.69969 -32.69969 -1.227007
-34.522598 -32.69969 -1.227007
-36.350434 -32.69969 -1.227007
-1.227007 -34.522598 -1.227007
-3.5337608 -34.522598 -1.227007
-5.3566265 -34.522598 -1.227007
-7.1794993 -34.522598 -1.227007
-9.0023791 -34.522598 -1.227007
-10.825217 -34.522598 -1.227007
-12.648125 -34.522598 -1.227007
-14.470962 -34.522598 -1.227007
-16.29387 -34.522598 -1.227007
-18.116708 -34.522598 -1.227007
-19.939616 -34.522598 -1.227007
-21.762453 -34.522598 -1.227007
-23.585361 -34.522598 -1.227007
-25.408199 -34.522598 -1.227007
-27.231107 -34.522598 -1.227007
-29.053944 -34.522598 -1.227007
-30.876852 -34.522598 -1.227007
-32.69969 -34.522598 -1.227007
-34.522598 -34.522598 -1.227007
-36.350434 -34.522598 -1.227007
-1.227007 -36.350434 -1.227007
-3.5337608 -36.350434 -1.227007
-5.3566265 -36.350434 -1.227007
-7.1794993 -36.350434 -1.227007
-9.0023791 -36.350434 -1.227007
-10.825217 -36.350434 -1.227007
-12.648125 -36.350434 -1.227007
-14.470962 -36.350434 -1.227007
-16.29387 -36.350434 -1.227007
-18.116708 -36.350434 -1.227007
-19.939616 -36.350434 -1.227007
-21.762453 -36.350434 -1.227007
-23.585361 -36.350434 -1.227007
-25.408199 -36.350434 -1.227007
-27.231107 -36.350434 -1.227007
-29.053944 -36.350434 -1.227007
-30.876852 -36.350434 -1.227007
-32.69969 -36.350434 -1.227007
-34.522598 -36.350434 -1.227007
-36.350434 -36.350434 -1.227007
-1.227007 -1.227007 -3.5337608
-3.5337608 -1.227007 -3.5337608
-5.3566265 -1.227007 -3.5337608
-7.1794993 -1.227007 -3.5337608
-9.0023791 -1.227007 -3.5337608
-10.825217 -1.227007 -3.5337608
-12.648125 -1.227007 -3.5337608
-14.470962 -1.227007 -3.5337608
-16.29387 -1.227007 -3.5337608
-18.116708 -1.227007 -3.5337608
-19.939616 -1.227007 -3.5337608
-21.762453 -1.227007 -3.5337608
-23.585361 -1.227007 -3.5337608
-25.408199 -1.227007 -3.5337608
-27.231107 -1.227007 -3.5337608
-29.053944 -1.227007 -3.5337608
-30.876852 -1.227007 -3.5337608
-32.69969 -1.227007 -3.5337608
-34.522598 -1.227007 -3.5337608
-36.350434 -1.227007 -3.5337608
-1.227007 -3.5337608 -3.5337608
-3.5337608 -3.5337608 -3.5337608
-5.3566265 -3.5337608 -3.5337608
-7.1794993 -3.5337608 -3.5337608
-9.0023791 -3.5337608 -3.5337608
-10.825217 -3.5337608 -3.5337608
-12.648125 -3.5337608 -3.5337608
-14.470962 -3.5337608 -3.5337608
-16.29387 -3.5337608 -3.5337608
-18.116708 -3.5337608 -3.5337608
-19.939616 -3.5337608 -3.5337608
-21.762453 -3.5337608 -3.5337608
-23.585361 -3.5337608 -3.5337608
-25.408199 -3.5337608 -3.5337608
-27.231107 -3.5337608 -3.5337608
-29.053944 -3.5337608 -3.5337608
-30.876852 -3.5337608 -3.5337608
-32.69969 -3.5337608 -3.5337608