# vtk DataFile Version 4.0
hesp visualization file
ASCII
DATASET UNSTRUCTURED_GRID
POINTS 3000 double
0.16545286 0.16545286 0.16545286
2.3804157 0.16545286 0.16545286
4.5990217 0.16545286 0.16545286
6.8176363 0.16545286 0.16545286
9.0362594 0.16545286 0.16545286
11.254831 0.16545286 0.16545286
13.473489 0.16545286 0.16545286
15.69206 0.16545286 0.16545286
17.910718 0.16545286 0.16545286
20.129289 0.16545286 0.16545286
22.347947 0.16545286 0.16545286
24.566519 0.16545286 0.16545286
26.785176 0.16545286 0.16545286
29.003748 0.16545286 0.16545286
31.222405 0.16545286 0.16545286
33.440977 0.16545286 0.16545286
35.659634 0.16545286 0.16545286
37.878206 0.16545286 0.16545286
40.096864 0.16545286 0.16545286
42.311783 0.16545286 0.16545286
0.16545286 2.3804157 0.16545286
2.3804157 2.3804157 0.16545286
4.5990217 2.3804157 0.16545286
6.8176363 2.3804157 0.16545286
9.0362594 2.3804157 0.16545286
11.254831 2.3804157 0.16545286
13.473489 2.3804157 0.16545286
15.69206 2.3804157 0.16545286
17.910718 2.3804157 0.16545286
20.129289 2.3804157 0.16545286
22.347947 2.3804157 0.16545286
24.566519 2.3804157 0.16545286
26.785176 2.3804157 0.16545286
29.003748 2.3804157 0.16545286
31.222405 2.3804157 0.16545286
33.440977 2.3804157 0.16545286
35.659634 2.3804157 0.16545286
37.878206 2.3804157 0.16545286
40.096864 2.3804157 0.16545286
42.311783 2.3804157 0.16545286
0.16545286 4.5990217 0.16545286
2.3804157 4.5990217 0.16545286
4.5990217 4.5990217 0.16545286
6.8176363 4.5990217 0.16545286
9.0362594 4.5990217 0.16545286
11.254831 4.5990217 0.16545286
13.473489 4.5990217 0.16545286
15.69206 4.5990217 0.16545286
17.910718 4.5990217 0.16545286
20.129289 4.5990217 0.16545286
22.347947 4.5990217 0.16545286
24.566519 4.5990217 0.16545286
26.785176 4.5990217 0.16545286
29.003748 4.5990217 0.16545286
31.222405 4.5990217 0.16545286
33.440977 4.5990217 0.16545286
35.659634 4.5990217 0.16545286
37.878206 4.5990217 0.16545286
40.096864 4.5990217 0.16545286
42.311783 4.5990217 0.16545286
0.16545286 6.8176363 0.16545286
2.3804157 6.8176363 0.16545286
4.5990217 6.8176363 0.16545286
6.8176363 6.8176363 0.16545286
9.0362594 6.8176363 0.16545286
11.254831 6.8176363 0.16545286
13.473489 6.8176363 0.16545286
15.69206 6.8176363 0.16545286
17.910718 6.8176363 0.16545286
20.129289 6.8176363 0.16545286
22.347947 6.8176363 0.16545286
24.566519 6.8176363 0.16545286
26.785176 6.8176363 0.16545286
29.003748 6.8176363 0.16545286
31.222405 6.8176363 0.16545286
33.440977 6.8176363 0.16545286
35.659634 6.8176363 0.16545286
37.878206 6.8176363 0.16545286
40.096864 6.8176363 0.16545286
42.311783 6.8176363 0.16545286
0.16545286 9.0362594 0.16545286
2.3804157 9.0362594 0.16545286
4.5990217 9.0362594 0.16545286
6.8176363 9.0362594 0.16545286
9.0362594 9.0362594 0.16545286
11.254831 9.0362594 0.16545286
13.473489 9.0362594 0.16545286
15.69206 9.0362594 0.16545286
17.910718 9.0362594 0.16545286
20.129289 9.0362594 0.16545286
22.347947 9.0362594 0.16545286
24.566519 9.0362594 0.16545286
26.785176 9.0362594 0.16545286
29.003748 9.0362594 0.16545286
31.222405 9.0362594 0.16545286
33.440977 9.0362594 0.16545286
35.659634 9.0362594 0.16545286
37.878206 9.0362594 0.16545286
40.096864 9.0362594 0.16545286
42.311783 9.0362594 0.16545286
0.16545286 11.254831 0.16545286
2.3804157 11.254831 0.16545286
4.5990217 11.254831 0.16545286
6.8176363 11.254831 0.16545286
9.0362594 11.254831 0.16545286
11.254831 11.254831 0.16545286
13.473489 11.254831 0.16545286
15.69206 11.254831 0.16545286
17.910718 11.254831 0.16545286
20.129289 11.254831 0.16545286
22.347947 11.254831 0.16545286
24.566519 11.254831 0.16545286
26.785176 11.254831 0.16545286
29.003748 11.254831 0.16545286
31.222405 11.254831 0.16545286
33.440977 11.254831 0.16545286
35.659634 11.254831 0.16545286
37.878206 11.254831 0.16545286
40.096864 11.254831 0.16545286
42.311783 11.254831 0.16545286
0.16545286 13.473489 0.16545286
2.3804157 13.473489 0.16545286
4.5990217 13.473489 0.16545286
6.8176363 13.473489 0.16545286
9.0362594 13.473489 0.16545286
11.254831 13.473489 0.16545286
13.473489 13.473489 0.16545286
15.69206 13.473489 0.16545286
17.910718 13.473489 0.16545286
20.129289 13.473489 0.16545286
22.347947 13.473489 0.16545286
24.566519 13.473489 0.16545286
26.785176 13.473489 0.16545286
29.003748 13.473489 0.16545286
31.222405 13.473489 0.16545286
33.440977 13.473489 0.16545286
35.659634 13.473489 0.16545286
37.878206 13.473489 0.16545286
40.096864 13.473489 0.16545286
42.311783 13.473489 0.16545286
0.16545286 15.69206 0.16545286
2.3804157 15.69206 0.16545286
4.5990217 15.69206 0.16545286
6.8176363 15.69206 0.16545286
9.0362594 15.69206 0.16545286
11.254831 15.69206 0.16545286
13.473489 15.69206 0.16545286
15.69206 15.69206 0.16545286
17.910718 15.69206 0.16545286
20.129289 15.69206 0.16545286
22.347947 15.69206 0.16545286
24.566519 15.69206 0.16545286
26.785176 15.69206 0.16545286
29.003748 15.69206 0.16545286
31.222405 15.69206 0.16545286
33.440977 15.69206 0.16545286
35.659634 15.69206 0.16545286
37.878206 15.69206 0.16545286
40.096864 15.69206 0.16545286
42.311783 15.69206 0.16545286
0.16545286 17.910718 0.16545286
2.3804157 17.910718 0.16545286
4.5990217 17.910718 0.16545286
6.8176363 17.910718 0.16545286
9.0362594 17.910718 0.16545286
11.254831 17.910718 0.16545286
13.473489 17.910718 0.16545286
15.69206 17.910718 0.16545286
17.910718 17.910718 0.16545286
20.129289 17.910718 0.16545286
22.347947 17.910718 0.16545286
24.566519 17.910718 0.16545286
26.785176 17.910718 0.16545286
29.003748 17.910718 0.16545286
31.222405 17.910718 0.16545286
33.440977 17.910718 0.16545286
35.659634 17.910718 0.16545286
37.878206 17.910718 0.16545286
40.096864 17.910718 0.16545286
42.311783 17.910718 0.16545286
0.16545286 20.129289 0.16545286
2.3804157 20.129289 0.16545286
4.5990217 20.129289 0.16545286
6.8176363 20.129289 0.16545286
9.0362594 20.129289 0.16545286
11.254831 20.129289 0.16545286
13.473489 20.129289 0.16545286
15.69206 20.129289 0.16545286
17.910718 20.129289 0.16545286
20.129289 20.129289 0.16545286
22.347947 20.129289 0.16545286
24.566519 20.129289 0.16545286
26.785176 20.129289 0.16545286
29.003748 20.129289 0.16545286
31.222405 20.129289 0.16545286
33.440977 20.129289 0.16545286
35.659634 20.129289 0.16545286
37.878206 20.129289 0.16545286
40.096864 20.129289 0.16545286
42.311783 20.129289 0.16545286
0.16545286 22.347947 0.16545286
2.3804157 22.347947 0.16545286
4.5990217 22.347947 0.16545286
6.8176363 22.347947 0.16545286
9.0362594 22.347947 0.16545286
11.254831 22.347947 0.16545286
13.473489 22.347947 0.16545286
15.69206 22.347947 0.16545286
17.910718 22.347947 0.16545286
20.129289 22.347947 0.16545286
22.347947 22.347947 0.16545286
24.566519 22.347947 0.16545286
26.785176 22.347947 0.16545286
29.003748 22.347947 0.16545286
31.222405 22.347947 0.16545286
33.440977 22.347947 0.16545286
35.659634 22.347947 0.16545286
37.878206 22.347947 0.16545286
40.096864 22.347947 0.16545286
42.311783 22.347947 0.16545286
0.16545286 24.566519 0.16545286
2.3804157 24.566519 0.16545286
4.5990217 24.566519 0.16545286
6.8176363 24.566519 0.16545286
9.0362594 24.566519 0.16545286
11.254831 24.566519 0.16545286
13.473489 24.566519 0.16545286
15.69206 24.566519 0.16545286
17.910718 24.566519 0.16545286
20.129289 24.566519 0.16545286
22.347947 24.566519 0.16545286
24.566519 24.566519 0.16545286
26.785176 24.566519 0.16545286
29.003748 24.566519 0.16545286
31.222405 24.566519 0.16545286
33.440977 24.566519 0.16545286
35.659634 24.566519 0.16545286
37.878206 24.566519 0.16545286
40.096864 24.566519 0.16545286
42.311783 24.566519 0.16545286
0.16545286 26.785176 0.16545286
2.3804157 26.785176 0.16545286
4.5990217 26.785176 0.16545286
6.8176363 26.785176 0.16545286
9.0362594 26.785176 0.16545286
11.254831 26.785176 0.16545286
13.473489 26.785176 0.16545286
15.69206 26.785176 0.16545286
17.910718 26.785176 0.16545286
20.129289 26.785176 0.16545286
22.347947 26.785176 0.16545286
24.566519 26.785176 0.16545286
26.785176 26.785176 0.16545286
29.003748 26.785176 0.16545286
31.222405 26.785176 0.16545286
33.440977 26.785176 0.16545286
35.659634 26.785176 0.16545286
37.878206 26.785176 0.16545286
40.096864 26.785176 0.16545286
42.311783 26.785176 0.16545286
0.16545286 29.003748 0.16545286
2.3804157 29.003748 0.16545286
4.5990217 29.003748 0.16545286
6.8176363 29.003748 0.16545286
9.0362594 29.003748 0.16545286
11.254831 29.003748 0.16545286
13.473489 29.003748 0.16545286
15.69206 29.003748 0.16545286
17.910718 29.003748 0.16545286
20.129289 29.003748 0.16545286
22.347947 29.003748 0.16545286
24.566519 29.003748 0.16545286
26.785176 29.003748 0.16545286
29.003748 29.003748 0.16545286
31.222405 29.003748 0.16545286
33.440977 29.003748 0.16545286
35.659634 29.003748 0.16545286
37.878206 29.003748 0.16545286
40.096864 29.003748 0.16545286
42.311783 29.003748 0.16545286
0.16545286 31.222405 0.16545286
2.3804157 31.222405 0.16545286
4.5990217 31.222405 0.16545286
6.8176363 31.222405 0.16545286
9.0362594 31.222405 0.16545286
11.254831 31.222405 0.16545286
13.473489 31.222405 0.16545286
15.69206 31.222405 0.16545286
17.910718 31.222405 0.16545286
20.129289 31.222405 0.16545286
22.347947 31.222405 0.16545286
24.566519 31.222405 0.16545286
26.785176 31.222405 0.16545286
29.003748 31.222405 0.16545286
31.222405 31.222405 0.16545286
33.440977 31.222405 0.16545286
35.659634 31.222405 0.16545286
37.878206 31.222405 0.16545286
40.096864 31.222405 0.16545286
42.311783 31.222405 0.16545286
0.16545286 33.440977 0.16545286
2.3804157 33.440977 0.16545286
4.5990217 33.440977 0.16545286
6.8176363 33.440977 0.16545286
9.0362594 33.440977 0.16545286
11.254831 33.440977 0.16545286
13.473489 33.440977 0.16545286
15.69206 33.440977 0.16545286
17.910718 33.440977 0.16545286
20.129289 33.440977 0.16545286
22.347947 33.440977 0.16545286
24.566519 33.440977 0.16545286
26.785176 33.440977 0.16545286
29.003748 33.440977 0.16545286
31.222405 33.440977 0.16545286
33.440977 33.440977 0.16545286
35.659634 33.440977 0.16545286
37.878206 33.440977 0.16545286
40.096864 33.440977 0.16545286
[...]
POINT_DATA 3000
SCALARS m double
LOOKUP_TABLE default
1
1
1
1
1
1
1
1
1
1
1
1
1
1
1
1
1
1
1
1
1
1
1
1
1
1
1
1
1
1
1
1
1
1
1
1
1
1
1
1
1
1
1
1
1
1
1
1
1
1
1
1
1
1
1
1
1
1
1
1
1
1
1
1
1
1
1
1
1
1
1
1
1
1
1
1
1
1
1
1
1
1
1
1
1
1
1
1
1
1
1
1
1
1
1
1
1
1
1
1
1
1
1
1
1
1
1
1
1
1
1
1
1
1
1
1
1
1
1
1
1
1
1
1
1
1
1
1
1
1
1
1
1
1
1
1
1
1
1
1
1
1
1
1
1
1
1
1
1
1
1
1
1
1
1
1
1
1
1
1
1
1
1
1
1
1
1
1
1
1
1
1
1
1
1
1
1
1
1
1
1
1
1
1
1
1
1
1
1
1
1
1
1
1
1
1
1
1
1
1
1
1
1
1
1
1
1
1
1
1
1
1
1
1
1
1
1
1
1
1
1
1
1
1
1
1
1
1
1
1
1
1
1
1
1
1
1
1
1
1
1
1
1
1
1
1
1
1
1
1
1
1
1
1
1
1
1
1
1
1
1
1
1
1
1
1
1
1
1
1
1
1
1
1
1
1
1
1
1
1
1
1
1
1
1
1
1
1
1
1
1
1
1
1
1
1
1
1
1
1
1
1
1
1
1
1
1
1
1
1
1
1
1
1
1
1
1
1
1
1
1
1
1
1
1
1
1
1
1
1
1
1
1
1
1
1
1
1
1
1
1
1
1
1
1
1
1
1
1
1
1
1
1
1
1
1
1
1
1
1
1
1
1
1
1
1
1
1
1
1
1
1
1
1
1
1
1
1
1
1
1
1
1
1
1
1
1
1
1
1
1
1
1
1
1
1
1
1
1
1
1
1
1
1
1
1
1
1
1
1
1
1
1
1
1
1
1
1
1
1
1
1
1
1
1
1
1
1
1
1
1
1
1
1
1
1
1
1
1
1
1
1
1
1
1
1
1
1
1
1
1
1
1
1
1
1
1
1
1
1
1
1
1
1
1
1
1
1
1
1
1
1
1
1
1
1
1
1
1
1
1
1
1
1
1
1
1
1
1
1
1
1
1
1
1
1
1
1
1
1
1
1
1
1
1
1
1
1
1
1
1
1
1
1
1
1
1
1
1
1
1
1
1
1
1
1
1
1
1
1
1
1
1
1
1
1
1
1
1
1
1
1
1
1
1
1
1
1
1
1
1
1
1
1
1
1
1
1
1
1
1
1
1
1
1
1
1
1
1
1
1
1
1
1
1
1
1
1
1
1
1
1
1
1
1
1
1
1
1
1
1
1
1
1
1
1
1
1
1
1
1
1
1
1
1
1
1
1
1
1
1
1
1
1
1
1
1
1
1
1
1
1
1
1
1
1
1
1
1
1
1
1
1
1
1
1
1
1
1
1
1
1
1
1
1
1
1
1
1
1
1
1
1
1
1
1
1
1
1
1
1
1
1
1
1
1
1
1
1
1
1
1
1
1
1
1
1
1
1
1
1
1
1
1
1
1
1
1
1
1
1
1
1
1
1
1
1
1
1
1
1
1
1
1
1
1
1
1
1
1
1
1
1
1
1
1
1
1
1
1
1
1
1
1
1
1
1
1
1
1
1
1
1
1
1
1
1
1
1
1
1
1
1
1
1
1
1
1
1
1
1
1
1
1
1
1
1
1
1
1
1
1
1
1
1
1
1
1
1
1
1
1
1
1
1
1
1
1
1
1
1
1
1
1
1
1
1
1
1
1
1
1
1
1
1
1
1
1
1
1
1
1
1
1
1
1
1
1
1
1
1
1
1
1
1
1
1
1
1
1
1
1
1
1
1
1
1
1
1
1
1
1
1
1
1
1
1
1
1
1
1
1
1
1
1
1
1
1
1
1
1
1
1
1
1
1
1
1
1
1
1
1
1
1
1
1
1
1
1
1
1
1
1
1
1
1
1
1
1
1
1
1
1
1
1
1
1
1
1
1
1
1
1
1
1
1
1
1
1
1
1
1
1
1
1
1
1
1
1
1
1
1
1
1
1
1
1
1
1
1
1
1
1
1
1
1
1
1
1
1
1
1
1
1
1
1
1
1
1
1
1
1
1
1
1
1
1
1
1
1
1
1
1
1
1
1
1
1
1
1
1
1
1
1
1
1
1
1
1
1
1
1
1
1
1
1
1
1
1
1
1
1
1
1
1
1
1
1
1
1
1
1
1
1
1
1
1
1
1
1
1
1
1
1
1
1
1
1
1
1
1
1
1
1
1
1
1
1
1
1
1
1
1
1
1
1
1
1
1
1
1
1
1
1
1
1
1
1
1
1
1
1
1
1
1
1
1
1
1
1
1
1
1
1
1
1
1
1
1
1
1
1
1
1
1
1
1
1
1
1
1
1
1
1
1
1
1
1
1
1
1
1
1
1
1
1
1
1
1
1
1
1
1
1
1
1
1
1
1
1
1
1
1
1
1
1
1
1
1
1
1
1
1
1
1
1
1
1
1
1
1
1
1
1
1
1
1
1
1
1
1
1
1
1
1
1
1
1
1
1
1
1
1
1
1
1
1
1
1
1
1
1
1
1
1
1
1
1
1
1
1
1
1
1
1
1
1
1
1
1
1
1
1
1
1
1
1
1
1
1
1
1
1
1
1
1
1
1
1
1
1
1
1
1
1
1
1
1
1
1
1
1
1
1
1
1
1
1
1
1
1
1
1
1
1
1
1
1
1
1
1
1
1
1
1
1
1
1
1
1
1
1
1
1
1
1
1
1
1
1
1
1
1
1
1
1
1
1
1
1
1
1
1
1
1
1
1
1
1
1
1
1
1
1
1
1
1
1
1
1
1
1
1
1
1
1
1
1
1
1
1
1
1
1
1
1
1
1
1
1
1
1
1
1
1
1
1
1
1
1
1
1
1
1
1
1
1
1
1
1
1
1
1
1
1
1
1
1
1
1
1
1
1
1
1
1
1
1
1
1
1
1
1
1
1
1
1
1
1
1
1
1
1
1
1
1
1
1
1
1
1
1
1
1
1
1
1
1
1
1
1
1
1
1
1
1
1
1
1
1
1
1
1
1
1
1
1
1
1
1
1
1
1
1
1
1
1
1
1
1
1
1
1
1
1
1
1
1
1
1
1
1
1
1
1
1
1
1
1
1
1
1
1
1
1
1
1
1
1
1
1
1
1
1
1
1
1
1
1
1
1
1
1
1
1
1
1
1
1
1
1
1
1
1
1
1
1
1
1
1
1
1
1
1
1
1
1
1
1
1
1
1
1
1
1
1
1
1
1
1
1
1
1
1
1
1
1
1
1
1
1
1
1
1
1
1
1
1
1
1
1
1
1
1
1
1
1
1
1
1
1
1
1
1
1
1
1
1
1
1
1
1
1
1
1
1
1
1
1
1
1
1
1
1
1
1
1
1
1
1
1
1
1
1
1
1
1
1
1
1
1
1
1
1
1
1
1
1
1
1
1
1
1
1
1
1
1
1
1
1
1
1
1
1
1
1
1
1
1
1
1
1
1
1
1
1
1
1
1
1
1
1
1
1
1
1
1
1
1
1
1
1
1
1
1
1
1
1
1
1
1
1
1
1
1
1
1
1
1
1
1
1
1
1
1
1
1
1
1
1
1
1
1
1
1
1
1
1
1
1
1
1
1
1
1
1
1
1
1
1
1
1
1
1
1
1
1
1
1
1
1
1
1
1
1
1
1
1
1
1
1
1
1
1
1
1
1
1
1
1
1
1
1
1
1
1
1
1
1
1
1
1
1
1
1
1
1
1
1
1
1
1
1
1
1
1
1
1
1
1
1
1
1
1
1
1
1
1
1
1
1
1
1
1
1
1
1
1
1
1
1
1
1
1
1
1
1
1
1
1
1
1
1
1
1
1
1
1
1
1
1
1
1
1
1
1
1
1
1
1
1
1
1
1
1
1
1
1
1
1
1
1
1
1
1
1
1
1
1
1
1
1
1
1
1
1
1
1
1
1
1
1
1
1
1
1
1
1
1
1
1
1
1
1
1
1
1
1
1
1
1
1
1
1
1
1
1
1
1
1
1
1
1
1
1
1
1
1
1
1
1
1
1
1
1
1
1
1
1
1
1
1
1
1
1
1
1
1
1
1
1
1
1
1
1
1
1
1
1
1
1
1
1
1
1
1
1
1
1
1
1
1
1
1
1
1
1
1
1
1
1
1
1
1
1
1
1
1
1
1
1
1
1
1
1
1
1
1
1
1
1
1
1
1
1
1
1
1
1
1
1
1
1
1
1
1
1
1
1
1
1
1
1
1
1
1
1
1
1
1
1
1
1
1
1
1
1
1
1
1
1
1
1
1
1
1
1
1
1
1
1
1
1
1
1
1
1
1
1
1
1
1
1
1
1
1
1
1
1
1
1
1
1
1
1
1
1
1
1
1
1
1
1
1
1
1
1
1
1
1
1
1
1
1
1
1
1
1
1
1
1
1
1
1
1
1
1
1
1
1
1
1
1
1
1
1
1
1
1
1
1
1
1
1
1
1
1
1
1
1
1
1
1
1
1
1
1
1
1
1
1
1
1
1
1
1
1
1
1
1
1
1
1
1
1
1
1
1
1
1
1
1
1
1
1
1
1
1
1
1
1
1
1
1
1
1
1
1
1
1
1
1
1
1
1
1
1
1
1
1
1
1
1
1
1
1
1
1
1
1
1
1
1
1
1
1
1
1
1
1
1
1
1
1
1
1
1
1
1
1
1
1
1
1
1
1
1
1
1
1
1
1
1
1
1
1
1
1
1
1
1
1
1
1
1
1
1
1
1
1
1
1
1
1
1
1
1
1
1
1
1
1
1
1
1
1
1
1
1
1
1
1
1
1
1
1
1
1
1
1
1
1
1
1
1
1
1
1
1
1
1
1
1
1
1
1
1
1
1
1
1
1
1
1
1
1
1
1
1
1
1
1
1
1
1
1
1
1
1
1
1
1
1
1
1
1
1
1
1
1
1
1
1
1
1
1
1
1
1
1
1
1
1
1
1
1
1
1
1
1
1
1
1
1
1
1
1
1
1
1
1
1
1
1
1
1
1
1
1
1
1
1
1
1
1
1
1
1
1
1
1
1
1
1
1
1
1
1
1
1
1
1
1
1
1
1
1
1
1
1
1
1
1
1
1
1
1
1
1
1
1
1
1
1
1
1
1
1
1
1
1
1
1
1
1
1
1
1
1
1
1
1
1
1
1
1
1
1
1
1
1
1
1
1
1
1
1
1
1
1
1
1
1
1
1
1
1
1
1
1
1
1
1
1
1
1
1
1
1
1
1
1
1
1
1
1
1
1
1
1
1
1
1
1
1
1
1
1
1
1
1
1
1
1
1
1
1
1
1
1
1
1
1
1
1
1
1
1
1
1
1
1
1
1
1
1
1
1
1
1
1
1
1
1
1
1
1
1
1
1
1
1
1
1
1
1
1
1
1
1
1
1
1
1
1
1
1
1
1
1
1
1
1
1
1
1
1
1
1
1
1
1
1
1
1
1
1
1
1
1
1
1
1
1
1
1
1
1
1
1
1
1
1
1
1
1
1
1
1
1
1
1
1
1
1
1
1
1
1
1
1
1
1
1
1
1
1
1
1
1
1
1
1
1
1
1
1
1
1
1
1
1
1
1
1
1
1
1
1
1
1
1
1
1
1
1
1
1
1
1
1
1
1
1
1
1
1
1
1
1
1
1
1
1
1
1
1
1
1
1
1
1
1
1
1
1
1
1
1
1
1
1
1
1
1
1
1
1
1
1
1
1
1
1
1
1
1
1
1
1
1
1
1
1
1
1
1
1
1
1
1
1
1
1
1
1
1
1
1
1
1
1
1
1
1
1
1
1
1
1
1
1
1
1
1
1
1
1
1
1
1
1
1
1
1
1
1
1
1
1
1
1
1
1
1
1
1
1
1
1
1
1
1
1
1
1
1
1
1
1
1
1
1
1
1
1
1
1
1
1
1
1
1
1
1
1
1
1
1
1
1
1
1
1
1
1
1
1
1
1
1
1
1
1
1
1
1
1
1
1
1
1
1
1
1
1
1
1
1
1
1
1
1
1
1
1
1
1
1
1
1
1
1
1
1
1
1
1
1
1
1
1
1
1
1
1
1
1
1
1
1
1
1
1
1
1
1
1
1
1
1
1
1
1
1
1
1
1
1
1
1
1
1
1
1
1
1
1
1
1
1
1
1
1
1
1
1
1
1
1
1
1
1
1
1
1
1
1
1
1
1
1
1
1
1
1
1
1
1
1
1
1
1
1
1
1
1
1
1
1
1
1
1
1
1
1
1
1
1
1
1
1
1
1
1
1
1
1
1
1
1
1
1
1
1
1
1
1
1
1
1
1
1
1
1
1
1
1
1
1
1
1
1
1
1
1
1
1
1
1
1
1
1
1
1
1
1
1
1
1
1
1
1
1
1
1
1
1
1
1
1
1
1
1
1
1
1
1
1
1
1
1
1
1
1
1
1
1
1
1
1
1
1
1
1
1
1
1
1
1
1
1
1
1
1
1
1
1
1
1
1
1
1
1
1
1
1
1
1
1
1
1
1
1
1
1
1
1
1
1
1
1
1
1
1
1
1
1
1
1
1
1
1
1
1
1
1
1
1
1
1
1
1
1
1
1
1
1
1
1
1
1
1
1
1
1
1
1
1
1
1
1
1
1
1
1
1
1
1
1
1
1
1
1
1
1
1
1
1
1
1
1
1
1
1
1
1
1
1
1
VECTORS v double
-1.2279916 -1.2279916 -1.2279916
-2.5489431 -1.2279916 -1.2279916
-3.8637975 -1.2279916 -1.2279916
-5.178657 -1.2279916 -1.2279916
-6.4935216 -1.2279916 -1.2279916
-7.8083556 -1.2279916 -1.2279916
-9.1232406 -1.2279916 -1.2279916
-10.438075 -1.2279916 -1.2279916
-11.75296 -1.2279916 -1.2279916
-13.067794 -1.2279916 -1.2279916
-14.382679 -1.2279916 -1.2279916
-15.697513 -1.2279916 -1.2279916
-17.012398 -1.2279916 -1.2279916
-18.327232 -1.2279916 -1.2279916
-19.642117 -1.2279916 -1.2279916
-20.956951 -1.2279916 -1.2279916
-22.271835 -1.2279916 -1.2279916
-23.586669 -1.2279916 -1.2279916
-24.901554 -1.2279916 -1.2279916
-26.22248 -1.2279916 -1.2279916
-1.2279916 -2.5489431 -1.2279916
-2.5489431 -2.5489431 -1.2279916
-3.8637975 -2.5489431 -1.2279916
-5.178657 -2.5489431 -1.2279916
-6.4935216 -2.5489431 -1.2279916
-7.8083556 -2.5489431 -1.2279916
-9.1232406 -2.5489431 -1.2279916
-10.438075 -2.5489431 -1.2279916
-11.75296 -2.5489431 -1.2279916
-13.067794 -2.5489431 -1.2279916
-14.382679 -2.5489431 -1.2279916
-15.697513 -2.5489431 -1.2279916
-17.012398 -2.5489431 -1.2279916
-18.327232 -2.5489431 -1.2279916
-19.642117 -2.5489431 -1.2279916
-20.956951 -2.5489431 -1.2279916
-22.271835 -2.5489431 -1.2279916
-23.586669 -2.5489431 -1.2279916
-24.901554 -2.5489431 -1.2279916
-26.22248 -2.5489431 -1.2279916
-1.2279916 -3.8637975 -1.2279916
-2.5489431 -3.8637975 -1.2279916
-3.8637975 -3.8637975 -1.2279916
-5.178657 -3.8637975 -1.2279916
-6.4935216 -3.8637975 -1.2279916
-7.8083556 -3.8637975 -1.2279916
-9.1232406 -3.8637975 -1.2279916
-10.438075 -3.8637975 -1.2279916
-11.75296 -3.8637975 -1.2279916
-13.067794 -3.8637975 -1.2279916
-14.382679 -3.8637975 -1.2279916
-15.697513 -3.8637975 -1.2279916
-17.012398 -3.8637975 -1.2279916
-18.327232 -3.8637975 -1.2279916
-19.642117 -3.8637975 -1.2279916
-20.956951 -3.8637975 -1.2279916
-22.271835 -3.8637975 -1.2279916
-23.586669 -3.8637975 -1.2279916
-24.901554 -3.8637975 -1.2279916
-26.22248 -3.8637975 -1.2279916
-1.2279916 -5.178657 -1.2279916
-2.5489431 -5.178657 -1.2279916
-3.8637975 -5.178657 -1.2279916
-5.178657 -5.178657 -1.2279916
-6.4935216 -5.178657 -1.2279916
-7.8083556 -5.178657 -1.2279916
-9.1232406 -5.178657 -1.2279916
-10.438075 -5.178657 -1.2279916
-11.75296 -5.178657 -1.2279916
-13.067794 -5.178657 -1.2279916
-14.382679 -5.178657 -1.2279916
-15.697513 -5.178657 -1.2279916
-17.012398 -5.178657 -1.2279916
-18.327232 -5.178657 -1.2279916
-19.642117 -5.178657 -1.2279916
-20.956951 -5.178657 -1.2279916
-22.271835 -5.178657 -1.2279916
-23.586669 -5.178657 -1.2279916
-24.901554 -5.178657 -1.2279916
-26.22248 -5.178657 -1.2279916
-1.2279916 -6.4935216 -1.2279916
-2.5489431 -6.4935216 -1.2279916
-3.8637975 -6.4935216 -1.2279916
-5.178657 -6.4935216 -1.2279916
-6.4935216 -6.4935216 -1.2279916
-7.8083556 -6.4935216 -1.2279916
-9.1232406 -6.4935216 -1.2279916
-10.438075 -6.4935216 -1.2279916
-11.75296 -6.4935216 -1.2279916
-13.067794 -6.4935216 -1.2279916
-14.382679 -6.4935216 -1.2279916
-15.697513 -6.4935216 -1.2279916
-17.012398 -6.4935216 -1.2279916
-18.327232 -6.4935216 -1.2279916
-19.642117 -6.4935216 -1.2279916
-20.956951 -6.4935216 -1.2279916
-22.271835 -6.4935216 -1.2279916
-23.586669 -6.4935216 -1.2279916
-24.901554 -6.4935216 -1.2279916
-26.22248 -6.4935216 -1.2279916
-1.2279916 -7.8083556 -1.2279916
-2.5489431 -7.8083556 -1.2279916
-3.8637975 -7.8083556 -1.2279916
-5.178657 -7.8083556 -1.2279916
-6.4935216 -7.8083556 -1.2279916
-7.8083556 -7.8083556 -1.2279916
-9.1232406 -7.8083556 -1.2279916
-10.438075 -7.8083556 -1.2279916
-11.75296 -7.8083556 -1.2279916
-13.067794 -7.8083556 -1.2279916
-14.382679 -7.8083556 -1.2279916
-15.697513 -7.8083556 -1.2279916
-17.012398 -7.8083556 -1.2279916
-18.327232 -7.8083556 -1.2279916
-19.642117 -7.8083556 -1.2279916
-20.956951 -7.8083556 -1.2279916
-22.271835 -7.8083556 -1.2279916
-23.586669 -7.8083556 -1.2279916
-24.901554 -7.8083556 -1.2279916
-26.22248 -7.8083556 -1.2279916
-1.2279916 -9.1232406 -1.2279916
-2.5489431 -9.1232406 -1.2279916
-3.8637975 -9.1232406 -1.2279916
-5.178657 -9.1232406 -1.2279916
-6.4935216 -9.1232406 -1.2279916
-7.8083556 -9.1232406 -1.2279916
-9.1232406 -9.1232406 -1.2279916
-10.438075 -9.1232406 -1.2279916
-11.75296 -9.1232406 -1.2279916
-13.067794 -9.1232406 -1.2279916
-14.382679 -9.1232406 -1.2279916
-15.697513 -9.1232406 -1.2279916
-17.012398 -9.1232406 -1.2279916
-18.327232 -9.1232406 -1.2279916
-19.642117 -9.1232406 -1.2279916
-20.956951 -9.1232406 -1.2279916
-22.271835 -9.1232406 -1.2279916
-23.586669 -9.1232406 -1.2279916
-24.901554 -9.1232406 -1.2279916
-26.22248 -9.1232406 -1.2279916
-1.2279916 -10.438075 -1.2279916
-2.5489431 -10.438075 -1.2279916
-3.8637975 -10.438075 -1.2279916
-5.178657 -10.438075 -1.2279916
-6.4935216 -10.438075 -1.2279916
-7.8083556 -10.438075 -1.2279916
-9.1232406 -10.438075 -1.2279916
-10.438075 -10.438075 -1.2279916
-11.75296 -10.438075 -1.2279916
-13.067794 -10.438075 -1.2279916
-14.382679 -10.438075 -1.2279916
-15.697513 -10.438075 -1.2279916
-17.012398 -10.438075 -1.2279916
-18.327232 -10.438075 -1.2279916
-19.642117 -10.438075 -1.2279916
-20.956951 -10.438075 -1.2279916
-22.271835 -10.438075 -1.2279916
-23.586669 -10.438075 -1.2279916
-24.901554 -10.438075 -1.2279916
-26.22248 -10.438075 -1.2279916
-1.2279916 -11.75296 -1.2279916
-2.5489431 -11.75296 -1.2279916
-3.8637975 -11.75296 -1.2279916
-5.178657 -11.75296 -1.2279916
-6.4935216 -11.75296 -1.2279916
-7.8083556 -11.75296 -1.2279916
-9.1232406 -11.75296 -1.2279916
-10.438075 -11.75296 -1.2279916
-11.75296 -11.75296 -1.2279916
-13.067794 -11.75296 -1.2279916
-14.382679 -11.75296 -1.2279916
-15.697513 -11.75296 -1.2279916
-17.012398 -11.75296 -1.2279916
-18.327232 -11.75296 -1.2279916
-19.642117 -11.75296 -1.2279916
-20.956951 -11.75296 -1.2279916
-22.271835 -11.75296 -1.2279916
-23.586669 -11.75296 -1.2279916
-24.901554 -11.75296 -1.2279916
-26.22248 -11.75296 -1.2279916
-1.2279916 -13.067794 -1.2279916
-2.5489431 -13.067794 -1.2279916
-3.8637975 -13.067794 -1.2279916
-5.178657 -13.067794 -1.2279916
-6.4935216 -13.067794 -1.2279916
-7.8083556 -13.067794 -1.2279916
-9.1232406 -13.067794 -1.2279916
-10.438075 -13.067794 -1.2279916
-11.75296 -13.067794 -1.2279916
-13.067794 -13.067794 -1.2279916
-14.382679 -13.067794 -1.2279916
-15.697513 -13.067794 -1.2279916
-17.012398 -13.067794 -1.2279916
-18.327232 -13.067794 -1.2279916
-19.642117 -13.067794 -1.2279916
-20.956951 -13.067794 -1.2279916
-22.271835 -13.067794 -1.2279916
-23.586669 -13.067794 -1.2279916
-24.901554 -13.067794 -1.2279916
-26.22248 -13.067794 -1.2279916
-1.2279916 -14.382679 -1.2279916
-2.5489431 -14.382679 -1.2279916
-3.8637975 -14.382679 -1.2279916
-5.178657 -14.382679 -1.2279916
-6.4935216 -14.382679 -1.2279916
-7.8083556 -14.382679 -1.2279916
-9.1232406 -14.382679 -1.2279916
-10.438075 -14.382679 -1.2279916
-11.75296 -14.382679 -1.2279916
-13.067794 -14.382679 -1.2279916
-14.382679 -14.382679 -1.2279916
-15.697513 -14.382679 -1.2279916
-17.012398 -14.382679 -1.2279916
-18.327232 -14.382679 -1.2279916
-19.642117 -14.382679 -1.2279916
-20.956951 -14.382679 -1.2279916
-22.271835 -14.382679 -1.2279916
-23.586669 -14.382679 -1.2279916
-24.901554 -14.382679 -1.2279916
-26.22248 -14.382679 -1.2279916
-1.2279916 -15.697513 -1.2279916
-2.5489431 -15.697513 -1.2279916
-3.8637975 -15.697513 -1.2279916
-5.178657 -15.697513 -1.2279916
-6.4935216 -15.697513 -1.2279916
-7.8083556 -15.697513 -1.2279916
-9.1232406 -15.697513 -1.2279916
-10.438075 -15.697513 -1.2279916
-11.75296 -15.697513 -1.2279916
-13.067794 -15.697513 -1.2279916
-14.382679 -15.697513 -1.2279916
-15.697513 -15.697513 -1.2279916
-17.012398 -15.697513 -1.2279916
-18.327232 -15.697513 -1.2279916
-19.642117 -15.697513 -1.2279916
-20.956951 -15.697513 -1.2279916
-22.271835 -15.697513 -1.2279916
-23.586669 -15.697513 -1.2279916
-24.901554 -15.697513 -1.2279916
-26.22248 -15.697513 -1.2279916
-1.2279916 -17.012398 -1.2279916
-2.5489431 -17.012398 -1.2279916
-3.8637975 -17.012398 -1.2279916
-5.178657 -17.012398 -1.2279916
-6.4935216 -17.012398 -1.2279916
-7.8083556 -17.012398 -1.2279916
-9.1232406 -17.012398 -1.2279916
-10.438075 -17.012398 -1.2279916
-11.75296 -17.012398 -1.2279916
-13.067794 -17.012398 -1.2279916
-14.382679 -17.012398 -1.2279916
-15.697513 -17.012398 -1.2279916
-17.012398 -17.012398 -1.2279916
-18.327232 -17.012398 -1.2279916
-19.642117 -17.012398 -1.2279916
-20.956951 -17.012398 -1.2279916
-22.271835 -17.012398 -1.2279916
-23.586669 -17.012398 -1.2279916
-24.901554 -17.012398 -1.2279916
-26.22248 -17.012398 -1.2279916
-1.2279916 -18.327232 -1.2279916
-2.5489431 -18.327232 -1.2279916
-3.8637975 -18.327232 -1.2279916
-5.178657 -18.327232 -1.2279916
-6.4935216 -18.327232 -1.2279916
-7.8083556 -18.327232 -1.2279916
-9.1232406 -18.327232 -1.2279916
-10.438075 -18.327232 -1.2279916
-11.75296 -18.327232 -1.2279916
-13.067794 -18.327232 -1.2279916
-14.382679 -18.327232 -1.2279916
-15.697513 -18.327232 -1.2279916
-17.012398 -18.327232 -1.2279916
-18.327232 -18.327232 -1.2279916
-19.642117 -18.327232 -1.2279916
-20.956951 -18.327232 -1.2279916
-22.271835 -18.327232 -1.2279916
-23.586669 -18.327232 -1.2279916
-24.901554 -18.327232 -1.2279916
-26.22248 -18.327232 -1.2279916
-1.2279916 -19.642117 -1.2279916
-2.5489431 -19.642117 -1.2279916
-3.8637975 -19.642117 -1.2279916
-5.178657 -19.642117 -1.2279916
-6.4935216 -19.642117 -1.2279916
-7.8083556 -19.642117 -1.2279916
-9.1232406 -19.642117 -1.2279916
-10.438075 -19.642117 -1.2279916
-11.75296 -19.642117 -1.2279916
-13.067794 -19.642117 -1.2279916
-14.382679 -19.642117 -1.2279916
-15.697513 -19.642117 -1.2279916
-17.012398 -19.642117 -1.2279916
-18.327232 -19.642117 -1.2279916
-19.642117 -19.642117 -1.2279916
-20.956951 -19.642117 -1.2279916
-22.271835 -19.642117 -1.2279916
-23.586669 -19.642117 -1.2279916
-24.901554 -19.642117 -1.2279916
-26.22248 -19.642117 -1.2279916
-1.2279916 -20.956951 -1.2279916
-2.5489431 -20.956951 -1.2279916
-3.8637975 -20.956951 -1.2279916
-5.178657 -20.956951 -1.2279916
-6.4935216 -20.956951 -1.2279916
-7.8083556 -20.956951 -1.2279916
-9.1232406 -20.956951 -1.2279916
-10.438075 -20.956951 -1.2279916
-11.75296 -20.956951 -1.2279916
-13.067794 -20.956951 -1.2279916
-14.382679 -20.956951 -1.2279916
-15.697513 -20.956951 -1.2279916
-17.012398 -20.956951 -1.2279916
-18.327232 -20.956951 -1.2279916
-19.642117 -20.956951 -1.2279916
-20.956951 -20.956951 -1.2279916
-22.271835 -20.956951 -1.2279916
-23.586669 -20.956951 -1.2279916
-24.901554 -20.956951 -1.2279916
-26.22248 -20.956951 -1.2279916
-1.2279916 -22.271835 -1.2279916
-2.5489431 -22.271835 -1.2279916
-3.8637975 -22.271835 -1.2279916
-5.178657 -22.271835 -1.2279916
-6.4935216 -22.271835 -1.2279916
-7.8083556 -22.271835 -1.2279916
-9.1232406 -22.271835 -1.2279916
-10.438075 -22.271835 -1.2279916
-11.75296 -22.271835 -1.2279916
-13.067794 -22.271835 -1.2279916
-14.382679 -22.271835 -1.2279916
-15.697513 -22.271835 -1.2279916
-17.012398 -22.271835 -1.2279916
-18.327232 -22.271835 -1.2279916
-19.642117 -22.271835 -1.2279916
-20.956951 -22.271835 -1.2279916
-22.271835 -22.271835 -1.2279916
-23.586669 -22.271835 -1.2279916
-24.901554 -22.271835 -1.2279916
-26.22248 -22.271835 -1.2279916
-1.2279916 -23.586669 -1.2279916
-2.5489431 -23.586669 -1.2279916
-3.8637975 -23.586669 -1.2279916
-5.178657 -23.586669 -1.2279916
-6.4935216 -23.586669 -1.2279916
-7.8083556 -23.586669 -1.2279916
-9.1232406 -23.586669 -1.2279916
-10.438075 -23.586669 -1.2279916
-11.75296 -23.586669 -1.2279916
-13.067794 -23.586669 -1.2279916
-14.382679 -23.586669 -1.2279916
-15.697513 -23.586669 -1.2279916
-17.012398 -23.586669 -1.2279916
-18.327232 -23.586669 -1.2279916
-19.642117 -23.586669 -1.2279916
-20.956951 -23.586669 -1.2279916
-22.271835 -23.586669 -1.2279916
-23.586669 -23.586669 -1.2279916
-24.901554 -23.586669 -1.2279916
-26.22248 -23.586669 -1.2279916
-1.2279916 -24.901554 -1.2279916
-2.5489431 -24.901554 -1.2279916
-3.8637975 -24.901554 -1.2279916
-5.178657 -24.901554 -1.2279916
-6.4935216 -24.901554 -1.2279916
-7.8083556 -24.901554 -1.2279916
-9.1232406 -24.901554 -1.2279916
-10.438075 -24.901554 -1.2279916
-11.75296 -24.901554 -1.2279916
-13.067794 -24.901554 -1.2279916
-14.382679 -24.901554 -1.2279916
-15.697513 -24.901554 -1.2279916
-17.012398 -24.901554 -1.2279916
-18.327232 -24.901554 -1.2279916
-19.642117 -24.901554 -1.2279916
-20.956951 -24.901554 -1.2279916
-22.271835 -24.901554 -1.2279916
-23.586669 -24.901554 -1.2279916
-24.901554 -24.901554 -1.2279916
-26.22248 -24.901554 -1.2279916
-1.2279916 -26.22248 -1.2279916
-2.5489431 -26.22248 -1.2279916
-3.8637975 -26.22248 -1.2279916
-5.178657 -26.22248 -1.2279916
-6.4935216 -26.22248 -1.2279916
-7.8083556 -26.22248 -1.2279916
-9.1232406 -26.22248 -1.2279916
-10.438075 -26.22248 -1.2279916
-11.75296 -26.22248 -1.2279916
-13.067794 -26.22248 -1.2279916
-14.382679 -26.22248 -1.2279916
-15.697513 -26.22248 -1.2279916
-17.012398 -26.22248 -1.2279916
-18.327232 -26.22248 -1.2279916
-19.642117 -26.22248 -1.2279916
-20.956951 -26.22248 -1.2279916
-22.271835 -26.22248 -1.2279916
-23.586669 -26.22248 -1.2279916
-24.901554 -26.22248 -1.2279916
-26.22248 -26.22248 -1.2279916
-1.2279916 -1.2279916 -2.5489431
-2.5489431 -1.2279916 -2.5489431
-3.8637975 -1.2279916 -2.5489431
-5.178657 -1.2279916 -2.5489431
-6.4935216 -1.2279916 -2.5489431
-7.8083556 -1.2279916 -2.5489431
-9.1232406 -1.2279916 -2.5489431
-10.438075 -1.2279916 -2.5489431
-11.75296 -1.2279916 -2.5489431
-13.067794 -1.2279916 -2.5489431
-14.382679 -1.2279916 -2.5489431
-15.697513 -1.2279916 -2.5489431
-17.012398 -1.2279916 -2.5489431
-18.327232 -1.2279916 -2.5489431
-19.642117 -1.2279916 -2.5489431
-20.956951 -1.2279916 -2.5489431
-22.271835 -1.2279916 -2.5489431
-23.586669 -1.2279916 -2.5489431
-24.901554 -1.2279916 -2.5489431
-26.22248 -1.2279916 -2.5489431
-1.2279916 -2.5489431 -2.5489431
-2.5489431 -2.5489431 -2.5489431
-3.8637975 -2.5489431 -2.5489431
-5.178657 -2.5489431 -2.5489431
-6.4935216 -2.5489431 -2.5489431