# vtk DataFile Version 4.0
hesp visualization file
ASCII
DATASET UNSTRUCTURED_GRID
POINTS 3000 double
0.1276794 0.1276794 0.1276794
2.3020223 0.1276794 0.1276794
4.4801896 0.1276794 0.1276794
6.6583654 0.1276794 0.1276794
8.8365495 0.1276794 0.1276794
11.014683 0.1276794 0.1276794
13.192901 0.1276794 0.1276794
15.371035 0.1276794 0.1276794
17.549253 0.1276794 0.1276794
19.727386 0.1276794 0.1276794
21.905604 0.1276794 0.1276794
24.083738 0.1276794 0.1276794
26.261956 0.1276794 0.1276794
28.440089 0.1276794 0.1276794
30.618307 0.1276794 0.1276794
32.796441 0.1276794 0.1276794
34.974659 0.1276794 0.1276794
37.152792 0.1276794 0.1276794
39.33101 0.1276794 0.1276794
41.505311 0.1276794 0.1276794
0.1276794 2.3020223 0.1276794
2.3020223 2.3020223 0.1276794
4.4801896 2.3020223 0.1276794
6.6583654 2.3020223 0.1276794
8.8365495 2.3020223 0.1276794
11.014683 2.3020223 0.1276794
13.192901 2.3020223 0.1276794
15.371035 2.3020223 0.1276794
17.549253 2.3020223 0.1276794
19.727386 2.3020223 0.1276794
21.905604 2.3020223 0.1276794
24.083738 2.3020223 0.1276794
26.261956 2.3020223 0.1276794
28.440089 2.3020223 0.1276794
30.618307 2.3020223 0.1276794
32.796441 2.3020223 0.1276794
34.974659 2.3020223 0.1276794
37.152792 2.3020223 0.1276794
39.33101 2.3020223 0.1276794
41.505311 2.3020223 0.1276794
0.1276794 4.4801896 0.1276794
2.3020223 4.4801896 0.1276794
4.4801896 4.4801896 0.1276794
6.6583654 4.4801896 0.1276794
8.8365495 4.4801896 0.1276794
11.014683 4.4801896 0.1276794
13.192901 4.4801896 0.1276794
15.371035 4.4801896 0.1276794
17.549253 4.4801896 0.1276794
19.727386 4.4801896 0.1276794
21.905604 4.4801896 0.1276794
24.083738 4.4801896 0.1276794
26.261956 4.4801896 0.1276794
28.440089 4.4801896 0.1276794
30.618307 4.4801896 0.1276794
32.796441 4.4801896 0.1276794
34.974659 4.4801896 0.1276794
37.152792 4.4801896 0.1276794
39.33101 4.4801896 0.1276794
41.505311 4.4801896 0.1276794
0.1276794 6.6583654 0.1276794
2.3020223 6.6583654 0.1276794
4.4801896 6.6583654 0.1276794
6.6583654 6.6583654 0.1276794
8.8365495 6.6583654 0.1276794
11.014683 6.6583654 0.1276794
13.192901 6.6583654 0.1276794
15.371035 6.6583654 0.1276794
17.549253 6.6583654 0.1276794
19.727386 6.6583654 0.1276794
21.905604 6.6583654 0.1276794
24.083738 6.6583654 0.1276794
26.261956 6.6583654 0.1276794
28.440089 6.6583654 0.1276794
30.618307 6.6583654 0.1276794
32.796441 6.6583654 0.1276794
34.974659 6.6583654 0.1276794
37.152792 6.6583654 0.1276794
39.33101 6.6583654 0.1276794
41.505311 6.6583654 0.1276794
0.1276794 8.8365495 0.1276794
2.3020223 8.8365495 0.1276794
4.4801896 8.8365495 0.1276794
6.6583654 8.8365495 0.1276794
8.8365495 8.8365495 0.1276794
11.014683 8.8365495 0.1276794
13.192901 8.8365495 0.1276794
15.371035 8.8365495 0.1276794
17.549253 8.8365495 0.1276794
19.727386 8.8365495 0.1276794
21.905604 8.8365495 0.1276794
24.083738 8.8365495 0.1276794
26.261956 8.8365495 0.1276794
28.440089 8.8365495 0.1276794
30.618307 8.8365495 0.1276794
32.796441 8.8365495 0.1276794
34.974659 8.8365495 0.1276794
37.152792 8.8365495 0.1276794
39.33101 8.8365495 0.1276794
41.505311 8.8365495 0.1276794
0.1276794 11.014683 0.1276794
2.3020223 11.014683 0.1276794
4.4801896 11.014683 0.1276794
6.6583654 11.014683 0.1276794
8.8365495 11.014683 0.1276794
11.014683 11.014683 0.1276794
13.192901 11.014683 0.1276794
15.371035 11.014683 0.1276794
17.549253 11.014683 0.1276794
19.727386 11.014683 0.1276794
21.905604 11.014683 0.1276794
24.083738 11.014683 0.1276794
26.261956 11.014683 0.1276794
28.440089 11.014683 0.1276794
30.618307 11.014683 0.1276794
32.796441 11.014683 0.1276794
34.974659 11.014683 0.1276794
37.152792 11.014683 0.1276794
39.33101 11.014683 0.1276794
41.505311 11.014683 0.1276794
0.1276794 13.192901 0.1276794
2.3020223 13.192901 0.1276794
4.4801896 13.192901 0.1276794
6.6583654 13.192901 0.1276794
8.8365495 13.192901 0.1276794
11.014683 13.192901 0.1276794
13.192901 13.192901 0.1276794
15.371035 13.192901 0.1276794
17.549253 13.192901 0.1276794
19.727386 13.192901 0.1276794
21.905604 13.192901 0.1276794
24.083738 13.192901 0.1276794
26.261956 13.192901 0.1276794
28.440089 13.192901 0.1276794
30.618307 13.192901 0.1276794
32.796441 13.192901 0.1276794
34.974659 13.192901 0.1276794
37.152792 13.192901 0.1276794
39.33101 13.192901 0.1276794
41.505311 13.192901 0.1276794
0.1276794 15.371035 0.1276794
2.3020223 15.371035 0.1276794
4.4801896 15.371035 0.1276794
6.6583654 15.371035 0.1276794
8.8365495 15.371035 0.1276794
11.014683 15.371035 0.1276794
13.192901 15.371035 0.1276794
15.371035 15.371035 0.1276794
17.549253 15.371035 0.1276794
19.727386 15.371035 0.1276794
21.905604 15.371035 0.1276794
24.083738 15.371035 0.1276794
26.261956 15.371035 0.1276794
28.440089 15.371035 0.1276794
30.618307 15.371035 0.1276794
32.796441 15.371035 0.1276794
34.974659 15.371035 0.1276794
37.152792 15.371035 0.1276794
39.33101 15.371035 0.1276794
41.505311 15.371035 0.1276794
0.1276794 17.549253 0.1276794
2.3020223 17.549253 0.1276794
4.4801896 17.549253 0.1276794
6.6583654 17.549253 0.1276794
8.8365495 17.549253 0.1276794
11.014683 17.549253 0.1276794
13.192901 17.549253 0.1276794
15.371035 17.549253 0.1276794
17.549253 17.549253 0.1276794
19.727386 17.549253 0.1276794
21.905604 17.549253 0.1276794
24.083738 17.549253 0.1276794
26.261956 17.549253 0.1276794
28.440089 17.549253 0.1276794
30.618307 17.549253 0.1276794
32.796441 17.549253 0.1276794
34.974659 17.549253 0.1276794
37.152792 17.549253 0.1276794
39.33101 17.549253 0.1276794
41.505311 17.549253 0.1276794
0.1276794 19.727386 0.1276794
2.3020223 19.727386 0.1276794
4.4801896 19.727386 0.1276794
6.6583654 19.727386 0.1276794
8.8365495 19.727386 0.1276794
11.014683 19.727386 0.1276794
13.192901 19.727386 0.1276794
15.371035 19.727386 0.1276794
17.549253 19.727386 0.1276794
19.727386 19.727386 0.1276794
21.905604 19.727386 0.1276794
24.083738 19.727386 0.1276794
26.261956 19.727386 0.1276794
28.440089 19.727386 0.1276794
30.618307 19.727386 0.1276794
32.796441 19.727386 0.1276794
34.974659 19.727386 0.1276794
37.152792 19.727386 0.1276794
39.33101 19.727386 0.1276794
41.505311 19.727386 0.1276794
0.1276794 21.905604 0.1276794
2.3020223 21.905604 0.1276794
4.4801896 21.905604 0.1276794
6.6583654 21.905604 0.1276794
8.8365495 21.905604 0.1276794
11.014683 21.905604 0.1276794
13.192901 21.905604 0.1276794
15.371035 21.905604 0.1276794
17.549253 21.905604 0.1276794
19.727386 21.905604 0.1276794
21.905604 21.905604 0.1276794
24.083738 21.905604 0.1276794
26.261956 21.905604 0.1276794
28.440089 21.905604 0.1276794
30.618307 21.905604 0.1276794
32.796441 21.905604 0.1276794
34.974659 21.905604 0.1276794
37.152792 21.905604 0.1276794
39.33101 21.905604 0.1276794
41.505311 21.905604 0.1276794
0.1276794 24.083738 0.1276794
2.3020223 24.083738 0.1276794
4.4801896 24.083738 0.1276794
6.6583654 24.083738 0.1276794
8.8365495 24.083738 0.1276794
11.014683 24.083738 0.1276794
13.192901 24.083738 0.1276794
15.371035 24.083738 0.1276794
17.549253 24.083738 0.1276794
19.727386 24.083738 0.1276794
21.905604 24.083738 0.1276794
24.083738 24.083738 0.1276794
26.261956 24.083738 0.1276794
28.440089 24.083738 0.1276794
30.618307 24.083738 0.1276794
32.796441 24.083738 0.1276794
34.974659 24.083738 0.1276794
37.152792 24.083738 0.1276794
39.33101 24.083738 0.1276794
41.505311 24.083738 0.1276794
0.1276794 26.261956 0.1276794
2.3020223 26.261956 0.1276794
4.4801896 26.261956 0.1276794
6.6583654 26.261956 0.1276794
8.8365495 26.261956 0.1276794
11.014683 26.261956 0.1276794
13.192901 26.261956 0.1276794
15.371035 26.261956 0.1276794
17.549253 26.261956 0.1276794
19.727386 26.261956 0.1276794
21.905604 26.261956 0.1276794
24.083738 26.261956 0.1276794
26.261956 26.261956 0.1276794
28.440089 26.261956 0.1276794
30.618307 26.261956 0.1276794
32.796441 26.261956 0.1276794
34.974659 26.261956 0.1276794
37.152792 26.261956 0.1276794
39.33101 26.261956 0.1276794
41.505311 26.261956 0.1276794
0.1276794 28.440089 0.1276794
2.3020223 28.440089 0.1276794
4.4801896 28.440089 0.1276794
6.6583654 28.440089 0.1276794
8.8365495 28.440089 0.1276794
11.014683 28.440089 0.1276794
13.192901 28.440089 0.1276794
15.371035 28.440089 0.1276794
17.549253 28.440089 0.1276794
19.727386 28.440089 0.1276794
21.905604 28.440089 0.1276794
24.083738 28.440089 0.1276794
26.261956 28.440089 0.1276794
28.440089 28.440089 0.1276794
30.618307 28.440089 0.1276794
32.796441 28.440089 0.1276794
34.974659 28.440089 0.1276794
37.152792 28.440089 0.1276794
39.33101 28.440089 0.1276794
41.505311 28.440089 0.1276794
0.1276794 30.618307 0.1276794
2.3020223 30.618307 0.1276794
4.4801896 30.618307 0.1276794
6.6583654 30.618307 0.1276794
8.8365495 30.618307 0.1276794
11.014683 30.618307 0.1276794
13.192901 30.618307 0.1276794
15.371035 30.618307 0.1276794
17.549253 30.618307 0.1276794
19.727386 30.618307 0.1276794
21.905604 30.618307 0.1276794
24.083738 30.618307 0.1276794
26.261956 30.618307 0.1276794
28.440089 30.618307 0.1276794
30.618307 30.618307 0.1276794
32.796441 30.618307 0.1276794
34.974659 30.618307 0.1276794
37.152792 30.618307 0.1276794
39.33101 30.618307 0.1276794
41.505311 30.618307 0.1276794
0.1276794 32.796441 0.1276794
2.3020223 32.796441 0.1276794
4.4801896 32.796441 0.1276794
6.6583654 32.796441 0.1276794
8.8365495 32.796441 0.1276794
11.014683 32.796441 0.1276794
13.192901 32.796441 0.1276794
15.371035 32.796441 0.1276794
17.549253 32.796441 0.1276794
19.727386 32.796441 0.1276794
21.905604 32.796441 0.1276794
24.083738 32.796441 0.1276794
26.261956 32.796441 0.1276794
28.440089 32.796441 0.1276794
30.618307 32.796441 0.1276794
32.796441 32.796441 0.1276794
34.974659 32.796441 0.1276794
37.152792 32.796441 0.1276794
39.33101 32.796441 0.1276794
41.505311 32.796441 0.1276794
0.1276794 34.974659 0.1276794
2.3020223 34.974659 0.1276794
4.4801896 34.974659 0.1276794
6.6583654 34.974659 0.1276794
8.8365495 34.974659 0.1276794
11.014683 34.974659 0.1276794
13.192901 34.974659 0.1276794
15.371035 34.974659 0.1276794
17.549253 34.974659 0.1276794
19.727386 34.974659 0.1276794
[...]
POINT_DATA 3000
SCALARS m double
LOOKUP_TABLE default
1
1
1
1
1
1
1
1
1
1
1
1
1
1
1
1
1
1
1
1
1
1
1
1
1
1
1
1
1
1
1
1
1
1
1
1
1
1
1
1
1
1
1
1
1
1
1
1
1
1
1
1
1
1
1
1
1
1
1
1
1
1
1
1
1
1
1
1
1
1
1
1
1
1
1
1
1
1
1
1
1
1
1
1
1
1
1
1
1
1
1
1
1
1
1
1
1
1
1
1
1
1
1
1
1
1
1
1
1
1
1
1
1
1
1
1
1
1
1
1
1
1
1
1
1
1
1
1
1
1
1
1
1
1
1
1
1
1
1
1
1
1
1
1
1
1
1
1
1
1
1
1
1
1
1
1
1
1
1
1
1
1
1
1
1
1
1
1
1
1
1
1
1
1
1
1
1
1
1
1
1
1
1
1
1
1
1
1
1
1
1
1
1
1
1
1
1
1
1
1
1
1
1
1
1
1
1
1
1
1
1
1
1
1
1
1
1
1
1
1
1
1
1
1
1
1
1
1
1
1
1
1
1
1
1
1
1
1
1
1
1
1
1
1
1
1
1
1
1
1
1
1
1
1
1
1
1
1
1
1
1
1
1
1
1
1
1
1
1
1
1
1
1
1
1
1
1
1
1
1
1
1
1
1
1
1
1
1
1
1
1
1
1
1
1
1
1
1
1
1
1
1
1
1
1
1
1
1
1
1
1
1
1
1
1
1
1
1
1
1
1
1
1
1
1
1
1
1
1
1
1
1
1
1
1
1
1
1
1
1
1
1
1
1
1
1
1
1
1
1
1
1
1
1
1
1
1
1
1
1
1
1
1
1
1
1
1
1
1
1
1
1
1
1
1
1
1
1
1
1
1
1
1
1
1
1
1
1
1
1
1
1
1
1
1
1
1
1
1
1
1
1
1
1
1
1
1
1
1
1
1
1
1
1
1
1
1
1
1
1
1
1
1
1
1
1
1
1
1
1
1
1
1
1
1
1
1
1
1
1
1
1
1
1
1
1
1
1
1
1
1
1
1
1
1
1
1
1
1
1
1
1
1
1
1
1
1
1
1
1
1
1
1
1
1
1
1
1
1
1
1
1
1
1
1
1
1
1
1
1
1
1
1
1
1
1
1
1
1
1
1
1
1
1
1
1
1
1
1
1
1
1
1
1
1
1
1
1
1
1
1
1
1
1
1
1
1
1
1
1
1
1
1
1
1
1
1
1
1
1
1
1
1
1
1
1
1
1
1
1
1
1
1
1
1
1
1
1
1
1
1
1
1
1
1
1
1
1
1
1
1
1
1
1
1
1
1
1
1
1
1
1
1
1
1
1
1
1
1
1
1
1
1
1
1
1
1
1
1
1
1
1
1
1
1
1
1
1
1
1
1
1
1
1
1
1
1
1
1
1
1
1
1
1
1
1
1
1
1
1
1
1
1
1
1
1
1
1
1
1
1
1
1
1
1
1
1
1
1
1
1
1
1
1
1
1
1
1
1
1
1
1
1
1
1
1
1
1
1
1
1
1
1
1
1
1
1
1
1
1
1
1
1
1
1
1
1
1
1
1
1
1
1
1
1
1
1
1
1
1
1
1
1
1
1
1
1
1
1
1
1
1
1
1
1
1
1
1
1
1
1
1
1
1
1
1
1
1
1
1
1
1
1
1
1
1
1
1
1
1
1
1
1
1
1
1
1
1
1
1
1
1
1
1
1
1
1
1
1
1
1
1
1
1
1
1
1
1
1
1
1
1
1
1
1
1
1
1
1
1
1
1
1
1
1
1
1
1
1
1
1
1
1
1
1
1
1
1
1
1
1
1
1
1
1
1
1
1
1
1
1
1
1
1
1
1
1
1
1
1
1
1
1
1
1
1
1
1
1
1
1
1
1
1
1
1
1
1
1
1
1
1
1
1
1
1
1
1
1
1
1
1
1
1
1
1
1
1
1
1
1
1
1
1
1
1
1
1
1
1
1
1
1
1
1
1
1
1
1
1
1
1
1
1
1
1
1
1
1
1
1
1
1
1
1
1
1
1
1
1
1
1
1
1
1
1
1
1
1
1
1
1
1
1
1
1
1
1
1
1
1
1
1
1
1
1
1
1
1
1
1
1
1
1
1
1
1
1
1
1
1
1
1
1
1
1
1
1
1
1
1
1
1
1
1
1
1
1
1
1
1
1
1
1
1
1
1
1
1
1
1
1
1
1
1
1
1
1
1
1
1
1
1
1
1
1
1
1
1
1
1
1
1
1
1
1
1
1
1
1
1
1
1
1
1
1
1
1
1
1
1
1
1
1
1
1
1
1
1
1
1
1
1
1
1
1
1
1
1
1
1
1
1
1
1
1
1
1
1
1
1
1
1
1
1
1
1
1
1
1
1
1
1
1
1
1
1
1
1
1
1
1
1
1
1
1
1
1
1
1
1
1
1
1
1
1
1
1
1
1
1
1
1
1
1
1
1
1
1
1
1
1
1
1
1
1
1
1
1
1
1
1
1
1
1
1
1
1
1
1
1
1
1
1
1
1
1
1
1
1
1
1
1
1
1
1
1
1
1
1
1
1
1
1
1
1
1
1
1
1
1
1
1
1
1
1
1
1
1
1
1
1
1
1
1
1
1
1
1
1
1
1
1
1
1
1
1
1
1
1
1
1
1
1
1
1
1
1
1
1
1
1
1
1
1
1
1
1
1
1
1
1
1
1
1
1
1
1
1
1
1
1
1
1
1
1
1
1
1
1
1
1
1
1
1
1
1
1
1
1
1
1
1
1
1
1
1
1
1
1
1
1
1
1
1
1
1
1
1
1
1
1
1
1
1
1
1
1
1
1
1
1
1
1
1
1
1
1
1
1
1
1
1
1
1
1
1
1
1
1
1
1
1
1
1
1
1
1
1
1
1
1
1
1
1
1
1
1
1
1
1
1
1
1
1
1
1
1
1
1
1
1
1
1
1
1
1
1
1
1
1
1
1
1
1
1
1
1
1
1
1
1
1
1
1
1
1
1
1
1
1
1
1
1
1
1
1
1
1
1
1
1
1
1
1
1
1
1
1
1
1
1
1
1
1
1
1
1
1
1
1
1
1
1
1
1
1
1
1
1
1
1
1
1
1
1
1
1
1
1
1
1
1
1
1
1
1
1
1
1
1
1
1
1
1
1
1
1
1
1
1
1
1
1
1
1
1
1
1
1
1
1
1
1
1
1
1
1
1
1
1
1
1
1
1
1
1
1
1
1
1
1
1
1
1
1
1
1
1
1
1
1
1
1
1
1
1
1
1
1
1
1
1
1
1
1
1
1
1
1
1
1
1
1
1
1
1
1
1
1
1
1
1
1
1
1
1
1
1
1
1
1
1
1
1
1
1
1
1
1
1
1
1
1
1
1
1
1
1
1
1
1
1
1
1
1
1
1
1
1
1
1
1
1
1
1
1
1
1
1
1
1
1
1
1
1
1
1
1
1
1
1
1
1
1
1
1
1
1
1
1
1
1
1
1
1
1
1
1
1
1
1
1
1
1
1
1
1
1
1
1
1
1
1
1
1
1
1
1
1
1
1
1
1
1
1
1
1
1
1
1
1
1
1
1
1
1
1
1
1
1
1
1
1
1
1
1
1
1
1
1
1
1
1
1
1
1
1
1
1
1
1
1
1
1
1
1
1
1
1
1
1
1
1
1
1
1
1
1
1
1
1
1
1
1
1
1
1
1
1
1
1
1
1
1
1
1
1
1
1
1
1
1
1
1
1
1
1
1
1
1
1
1
1
1
1
1
1
1
1
1
1
1
1
1
1
1
1
1
1
1
1
1
1
1
1
1
1
1
1
1
1
1
1
1
1
1
1
1
1
1
1
1
1
1
1
1
1
1
1
1
1
1
1
1
1
1
1
1
1
1
1
1
1
1
1
1
1
1
1
1
1
1
1
1
1
1
1
1
1
1
1
1
1
1
1
1
1
1
1
1
1
1
1
1
1
1
1
1
1
1
1
1
1
1
1
1
1
1
1
1
1
1
1
1
1
1
1
1
1
1
1
1
1
1
1
1
1
1
1
1
1
1
1
1
1
1
1
1
1
1
1
1
1
1
1
1
1
1
1
1
1
1
1
1
1
1
1
1
1
1
1
1
1
1
1
1
1
1
1
1
1
1
1
1
1
1
1
1
1
1
1
1
1
1
1
1
1
1
1
1
1
1
1
1
1
1
1
1
1
1
1
1
1
1
1
1
1
1
1
1
1
1
1
1
1
1
1
1
1
1
1
1
1
1
1
1
1
1
1
1
1
1
1
1
1
1
1
1
1
1
1
1
1
1
1
1
1
1
1
1
1
1
1
1
1
1
1
1
1
1
1
1
1
1
1
1
1
1
1
1
1
1
1
1
1
1
1
1
1
1
1
1
1
1
1
1
1
1
1
1
1
1
1
1
1
1
1
1
1
1
1
1
1
1
1
1
1
1
1
1
1
1
1
1
1
1
1
1
1
1
1
1
1
1
1
1
1
1
1
1
1
1
1
1
1
1
1
1
1
1
1
1
1
1
1
1
1
1
1
1
1
1
1
1
1
1
1
1
1
1
1
1
1
1
1
1
1
1
1
1
1
1
1
1
1
1
1
1
1
1
1
1
1
1
1
1
1
1
1
1
1
1
1
1
1
1
1
1
1
1
1
1
1
1
1
1
1
1
1
1
1
1
1
1
1
1
1
1
1
1
1
1
1
1
1
1
1
1
1
1
1
1
1
1
1
1
1
1
1
1
1
1
1
1
1
1
1
1
1
1
1
1
1
1
1
1
1
1
1
1
1
1
1
1
1
1
1
1
1
1
1
1
1
1
1
1
1
1
1
1
1
1
1
1
1
1
1
1
1
1
1
1
1
1
1
1
1
1
1
1
1
1
1
1
1
1
1
1
1
1
1
1
1
1
1
1
1
1
1
1
1
1
1
1
1
1
1
1
1
1
1
1
1
1
1
1
1
1
1
1
1
1
1
1
1
1
1
1
1
1
1
1
1
1
1
1
1
1
1
1
1
1
1
1
1
1
1
1
1
1
1
1
1
1
1
1
1
1
1
1
1
1
1
1
1
1
1
1
1
1
1
1
1
1
1
1
1
1
1
1
1
1
1
1
1
1
1
1
1
1
1
1
1
1
1
1
1
1
1
1
1
1
1
1
1
1
1
1
1
1
1
1
1
1
1
1
1
1
1
1
1
1
1
1
1
1
1
1
1
1
1
1
1
1
1
1
1
1
1
1
1
1
1
1
1
1
1
1
1
1
1
1
1
1
1
1
1
1
1
1
1
1
1
1
1
1
1
1
1
1
1
1
1
1
1
1
1
1
1
1
1
1
1
1
1
1
1
1
1
1
1
1
1
1
1
1
1
1
1
1
1
1
1
1
1
1
1
1
1
1
1
1
1
1
1
1
1
1
1
1
1
1
1
1
1
1
1
1
1
1
1
1
1
1
1
1
1
1
1
1
1
1
1
1
1
1
1
1
1
1
1
1
1
1
1
1
1
1
1
1
1
1
1
1
1
1
1
1
1
1
1
1
1
1
1
1
1
1
1
1
1
1
1
1
1
1
1
1
1
1
1
1
1
1
1
1
1
1
1
1
1
1
1
1
1
1
1
1
1
1
1
1
1
1
1
1
1
1
1
1
1
1
1
1
1
1
1
1
1
1
1
1
1
1
1
1
1
1
1
1
1
1
1
1
1
1
1
1
1
1
1
1
1
1
1
1
1
1
1
1
1
1
1
1
1
1
1
1
1
1
1
1
1
1
1
1
1
1
1
1
1
1
1
1
1
1
1
1
1
1
1
1
1
1
1
1
1
1
1
1
1
1
1
1
1
1
1
1
1
1
1
1
1
1
1
1
1
1
1
1
1
1
1
1
1
1
1
1
1
1
1
1
1
1
1
1
1
1
1
1
1
1
1
1
1
1
1
1
1
1
1
1
1
1
1
1
1
1
1
1
1
1
1
1
1
1
1
1
1
1
1
1
1
1
1
1
1
1
1
1
1
1
1
1
1
1
1
1
1
1
1
1
1
1
1
1
1
1
1
1
1
1
1
1
1
1
1
1
1
1
1
1
1
1
1
1
1
1
1
1
1
1
1
1
1
1
1
1
1
1
1
1
1
1
1
1
1
1
1
1
1
1
1
1
1
1
1
1
1
1
1
1
1
1
1
1
1
1
1
1
1
1
1
1
1
1
1
1
1
1
1
1
1
1
1
1
1
1
1
1
1
1
1
1
1
1
1
1
1
1
1
1
1
1
1
1
1
1
1
1
1
1
1
1
1
1
1
1
1
1
1
1
1
1
1
1
1
1
1
1
1
1
1
1
1
1
1
1
1
1
1
1
1
1
1
1
1
1
1
1
1
1
1
1
1
1
1
1
1
1
1
1
1
1
1
1
1
1
1
1
1
1
1
1
1
1
1
1
1
1
1
1
1
1
1
1
1
1
1
1
1
1
1
1
1
1
1
1
1
1
1
1
1
1
1
1
1
1
1
1
1
1
1
1
1
1
1
1
1
1
1
1
1
1
1
1
1
1
1
1
1
1
1
1
1
1
1
1
1
1
1
1
1
1
1
1
1
1
1
1
1
1
1
1
1
1
1
1
1
1
1
1
1
1
1
1
1
1
1
1
1
1
1
1
1
1
1
1
1
1
1
1
1
1
1
1
1
1
1
1
1
1
1
1
1
1
1
1
1
1
1
1
1
1
1
1
1
1
1
1
1
1
1
1
1
1
1
1
1
1
1
1
1
1
1
1
1
1
1
VECTORS v double
-1.2900083 -1.2900083 -1.2900083
-2.6768037 -1.2900083 -1.2900083
-4.0576141 -1.2900083 -1.2900083
-5.4384298 -1.2900083 -1.2900083
-6.8192509 -1.2900083 -1.2900083
-8.2000399 -1.2900083 -1.2900083
-9.5808824 -1.2900083 -1.2900083
-10.961671 -1.2900083 -1.2900083
-12.342514 -1.2900083 -1.2900083
-13.723303 -1.2900083 -1.2900083
-15.104145 -1.2900083 -1.2900083
-16.484934 -1.2900083 -1.2900083
-17.865777 -1.2900083 -1.2900083
-19.246566 -1.2900083 -1.2900083
-20.627408 -1.2900083 -1.2900083
-22.008197 -1.2900083 -1.2900083
-23.38904 -1.2900083 -1.2900083
-24.769829 -1.2900083 -1.2900083
-26.150671 -1.2900083 -1.2900083
-27.53744 -1.2900083 -1.2900083
-1.2900083 -2.6768037 -1.2900083
-2.6768037 -2.6768037 -1.2900083
-4.0576141 -2.6768037 -1.2900083
-5.4384298 -2.6768037 -1.2900083
-6.8192509 -2.6768037 -1.2900083
-8.2000399 -2.6768037 -1.2900083
-9.5808824 -2.6768037 -1.2900083
-10.961671 -2.6768037 -1.2900083
-12.342514 -2.6768037 -1.2900083
-13.723303 -2.6768037 -1.2900083
-15.104145 -2.6768037 -1.2900083
-16.484934 -2.6768037 -1.2900083
-17.865777 -2.6768037 -1.2900083
-19.246566 -2.6768037 -1.2900083
-20.627408 -2.6768037 -1.2900083
-22.008197 -2.6768037 -1.2900083
-23.38904 -2.6768037 -1.2900083
-24.769829 -2.6768037 -1.2900083
-26.150671 -2.6768037 -1.2900083
-27.53744 -2.6768037 -1.2900083
-1.2900083 -4.0576141 -1.2900083
-2.6768037 -4.0576141 -1.2900083
-4.0576141 -4.0576141 -1.2900083
-5.4384298 -4.0576141 -1.2900083
-6.8192509 -4.0576141 -1.2900083
-8.2000399 -4.0576141 -1.2900083
-9.5808824 -4.0576141 -1.2900083
-10.961671 -4.0576141 -1.2900083
-12.342514 -4.0576141 -1.2900083
-13.723303 -4.0576141 -1.2900083
-15.104145 -4.0576141 -1.2900083
-16.484934 -4.0576141 -1.2900083
-17.865777 -4.0576141 -1.2900083
-19.246566 -4.0576141 -1.2900083
-20.627408 -4.0576141 -1.2900083
-22.008197 -4.0576141 -1.2900083
-23.38904 -4.0576141 -1.2900083
-24.769829 -4.0576141 -1.2900083
-26.150671 -4.0576141 -1.2900083
-27.53744 -4.0576141 -1.2900083
-1.2900083 -5.4384298 -1.2900083
-2.6768037 -5.4384298 -1.2900083
-4.0576141 -5.4384298 -1.2900083
-5.4384298 -5.4384298 -1.2900083
-6.8192509 -5.4384298 -1.2900083
-8.2000399 -5.4384298 -1.2900083
-9.5808824 -5.4384298 -1.2900083
-10.961671 -5.4384298 -1.2900083
-12.342514 -5.4384298 -1.2900083
-13.723303 -5.4384298 -1.2900083
-15.104145 -5.4384298 -1.2900083
-16.484934 -5.4384298 -1.2900083
-17.865777 -5.4384298 -1.2900083
-19.246566 -5.4384298 -1.2900083
-20.627408 -5.4384298 -1.2900083
-22.008197 -5.4384298 -1.2900083
-23.38904 -5.4384298 -1.2900083
-24.769829 -5.4384298 -1.2900083
-26.150671 -5.4384298 -1.2900083
-27.53744 -5.4384298 -1.2900083
-1.2900083 -6.8192509 -1.2900083
-2.6768037 -6.8192509 -1.2900083
-4.0576141 -6.8192509 -1.2900083
-5.4384298 -6.8192509 -1.2900083
-6.8192509 -6.8192509 -1.2900083
-8.2000399 -6.8192509 -1.2900083
-9.5808824 -6.8192509 -1.2900083
-10.961671 -6.8192509 -1.2900083
-12.342514 -6.8192509 -1.2900083
-13.723303 -6.8192509 -1.2900083
-15.104145 -6.8192509 -1.2900083
-16.484934 -6.8192509 -1.2900083
-17.865777 -6.8192509 -1.2900083
-19.246566 -6.8192509 -1.2900083
-20.627408 -6.8192509 -1.2900083
-22.008197 -6.8192509 -1.2900083
-23.38904 -6.8192509 -1.2900083
-24.769829 -6.8192509 -1.2900083
-26.150671 -6.8192509 -1.2900083
-27.53744 -6.8192509 -1.2900083
-1.2900083 -8.2000399 -1.2900083
-2.6768037 -8.2000399 -1.2900083
-4.0576141 -8.2000399 -1.2900083
-5.4384298 -8.2000399 -1.2900083
-6.8192509 -8.2000399 -1.2900083
-8.2000399 -8.2000399 -1.2900083
-9.5808824 -8.2000399 -1.2900083
-10.961671 -8.2000399 -1.2900083
-12.342514 -8.2000399 -1.2900083
-13.723303 -8.2000399 -1.2900083
-15.104145 -8.2000399 -1.2900083
-16.484934 -8.2000399 -1.2900083
-17.865777 -8.2000399 -1.2900083
-19.246566 -8.2000399 -1.2900083
-20.627408 -8.2000399 -1.2900083
-22.008197 -8.2000399 -1.2900083
-23.38904 -8.2000399 -1.2900083
-24.769829 -8.2000399 -1.2900083
-26.150671 -8.2000399 -1.2900083
-27.53744 -8.2000399 -1.2900083
-1.2900083 -9.5808824 -1.2900083
-2.6768037 -9.5808824 -1.2900083
-4.0576141 -9.5808824 -1.2900083
-5.4384298 -9.5808824 -1.2900083
-6.8192509 -9.5808824 -1.2900083
-8.2000399 -9.5808824 -1.2900083
-9.5808824 -9.5808824 -1.2900083
-10.961671 -9.5808824 -1.2900083
-12.342514 -9.5808824 -1.2900083
-13.723303 -9.5808824 -1.2900083
-15.104145 -9.5808824 -1.2900083
-16.484934 -9.5808824 -1.2900083
-17.865777 -9.5808824 -1.2900083
-19.246566 -9.5808824 -1.2900083
-20.627408 -9.5808824 -1.2900083
-22.008197 -9.5808824 -1.2900083
-23.38904 -9.5808824 -1.2900083
-24.769829 -9.5808824 -1.2900083
-26.150671 -9.5808824 -1.2900083
-27.53744 -9.5808824 -1.2900083
-1.2900083 -10.961671 -1.2900083
-2.6768037 -10.961671 -1.2900083
-4.0576141 -10.961671 -1.2900083
-5.4384298 -10.961671 -1.2900083
-6.8192509 -10.961671 -1.2900083
-8.2000399 -10.961671 -1.2900083
-9.5808824 -10.961671 -1.2900083
-10.961671 -10.961671 -1.2900083
-12.342514 -10.961671 -1.2900083
-13.723303 -10.961671 -1.2900083
-15.104145 -10.961671 -1.2900083
-16.484934 -10.961671 -1.2900083
-17.865777 -10.961671 -1.2900083
-19.246566 -10.961671 -1.2900083
-20.627408 -10.961671 -1.2900083
-22.008197 -10.961671 -1.2900083
-23.38904 -10.961671 -1.2900083
-24.769829 -10.961671 -1.2900083
-26.150671 -10.961671 -1.2900083
-27.53744 -10.961671 -1.2900083
-1.2900083 -12.342514 -1.2900083
-2.6768037 -12.342514 -1.2900083
-4.0576141 -12.342514 -1.2900083
-5.4384298 -12.342514 -1.2900083
-6.8192509 -12.342514 -1.2900083
-8.2000399 -12.342514 -1.2900083
-9.5808824 -12.342514 -1.2900083
-10.961671 -12.342514 -1.2900083
-12.342514 -12.342514 -1.2900083
-13.723303 -12.342514 -1.2900083
-15.104145 -12.342514 -1.2900083
-16.484934 -12.342514 -1.2900083
-17.865777 -12.342514 -1.2900083
-19.246566 -12.342514 -1.2900083
-20.627408 -12.342514 -1.2900083
-22.008197 -12.342514 -1.2900083
-23.38904 -12.342514 -1.2900083
-24.769829 -12.342514 -1.2900083
-26.150671 -12.342514 -1.2900083
-27.53744 -12.342514 -1.2900083
-1.2900083 -13.723303 -1.2900083
-2.6768037 -13.723303 -1.2900083
-4.0576141 -13.723303 -1.2900083
-5.4384298 -13.723303 -1.2900083
-6.8192509 -13.723303 -1.2900083
-8.2000399 -13.723303 -1.2900083
-9.5808824 -13.723303 -1.2900083
-10.961671 -13.723303 -1.2900083
-12.342514 -13.723303 -1.2900083
-13.723303 -13.723303 -1.2900083
-15.104145 -13.723303 -1.2900083
-16.484934 -13.723303 -1.2900083
-17.865777 -13.723303 -1.2900083
-19.246566 -13.723303 -1.2900083
-20.627408 -13.723303 -1.2900083
-22.008197 -13.723303 -1.2900083
-23.38904 -13.723303 -1.2900083
-24.769829 -13.723303 -1.2900083
-26.150671 -13.723303 -1.2900083
-27.53744 -13.723303 -1.2900083
-1.2900083 -15.104145 -1.2900083
-2.6768037 -15.104145 -1.2900083
-4.0576141 -15.104145 -1.2900083
-5.4384298 -15.104145 -1.2900083
-6.8192509 -15.104145 -1.2900083
-8.2000399 -15.104145 -1.2900083
-9.5808824 -15.104145 -1.2900083
-10.961671 -15.104145 -1.2900083
-12.342514 -15.104145 -1.2900083
-13.723303 -15.104145 -1.2900083
-15.104145 -15.104145 -1.2900083
-16.484934 -15.104145 -1.2900083
-17.865777 -15.104145 -1.2900083
-19.246566 -15.104145 -1.2900083
-20.627408 -15.104145 -1.2900083
-22.008197 -15.104145 -1.2900083
-23.38904 -15.104145 -1.2900083
-24.769829 -15.104145 -1.2900083
-26.150671 -15.104145 -1.2900083
-27.53744 -15.104145 -1.2900083
-1.2900083 -16.484934 -1.2900083
-2.6768037 -16.484934 -1.2900083
-4.0576141 -16.484934 -1.2900083
-5.4384298 -16.484934 -1.2900083
-6.8192509 -16.484934 -1.2900083
-8.2000399 -16.484934 -1.2900083
-9.5808824 -16.484934 -1.2900083
-10.961671 -16.484934 -1.2900083
-12.342514 -16.484934 -1.2900083
-13.723303 -16.484934 -1.2900083
-15.104145 -16.484934 -1.2900083
-16.484934 -16.484934 -1.2900083
-17.865777 -16.484934 -1.2900083
-19.246566 -16.484934 -1.2900083
-20.627408 -16.484934 -1.2900083
-22.008197 -16.484934 -1.2900083
-23.38904 -16.484934 -1.2900083
-24.769829 -16.484934 -1.2900083
-26.150671 -16.484934 -1.2900083
-27.53744 -16.484934 -1.2900083
-1.2900083 -17.865777 -1.2900083
-2.6768037 -17.865777 -1.2900083
-4.0576141 -17.865777 -1.2900083
-5.4384298 -17.865777 -1.2900083
-6.8192509 -17.865777 -1.2900083
-8.2000399 -17.865777 -1.2900083
-9.5808824 -17.865777 -1.2900083
-10.961671 -17.865777 -1.2900083
-12.342514 -17.865777 -1.2900083
-13.723303 -17.865777 -1.2900083
-15.104145 -17.865777 -1.2900083
-16.484934 -17.865777 -1.2900083
-17.865777 -17.865777 -1.2900083
-19.246566 -17.865777 -1.2900083
-20.627408 -17.865777 -1.2900083
-22.008197 -17.865777 -1.2900083
-23.38904 -17.865777 -1.2900083
-24.769829 -17.865777 -1.2900083
-26.150671 -17.865777 -1.2900083
-27.53744 -17.865777 -1.2900083
-1.2900083 -19.246566 -1.2900083
-2.6768037 -19.246566 -1.2900083
-4.0576141 -19.246566 -1.2900083
-5.4384298 -19.246566 -1.2900083
-6.8192509 -19.246566 -1.2900083
-8.2000399 -19.246566 -1.2900083
-9.5808824 -19.246566 -1.2900083
-10.961671 -19.246566 -1.2900083
-12.342514 -19.246566 -1.2900083
-13.723303 -19.246566 -1.2900083
-15.104145 -19.246566 -1.2900083
-16.484934 -19.246566 -1.2900083
-17.865777 -19.246566 -1.2900083
-19.246566 -19.246566 -1.2900083
-20.627408 -19.246566 -1.2900083
-22.008197 -19.246566 -1.2900083
-23.38904 -19.246566 -1.2900083
-24.769829 -19.246566 -1.2900083
-26.150671 -19.246566 -1.2900083
-27.53744 -19.246566 -1.2900083
-1.2900083 -20.627408 -1.2900083
-2.6768037 -20.627408 -1.2900083
-4.0576141 -20.627408 -1.2900083
-5.4384298 -20.627408 -1.2900083
-6.8192509 -20.627408 -1.2900083
-8.2000399 -20.627408 -1.2900083
-9.5808824 -20.627408 -1.2900083
-10.961671 -20.627408 -1.2900083
-12.342514 -20.627408 -1.2900083
-13.723303 -20.627408 -1.2900083
-15.104145 -20.627408 -1.2900083
-16.484934 -20.627408 -1.2900083
-17.865777 -20.627408 -1.2900083
-19.246566 -20.627408 -1.2900083
-20.627408 -20.627408 -1.2900083
-22.008197 -20.627408 -1.2900083
-23.38904 -20.627408 -1.2900083
-24.769829 -20.627408 -1.2900083
-26.150671 -20.627408 -1.2900083
-27.53744 -20.627408 -1.2900083
-1.2900083 -22.008197 -1.2900083
-2.6768037 -22.008197 -1.2900083
-4.0576141 -22.008197 -1.2900083
-5.4384298 -22.008197 -1.2900083
-6.8192509 -22.008197 -1.2900083
-8.2000399 -22.008197 -1.2900083
-9.5808824 -22.008197 -1.2900083
-10.961671 -22.008197 -1.2900083
-12.342514 -22.008197 -1.2900083
-13.723303 -22.008197 -1.2900083
-15.104145 -22.008197 -1.2900083
-16.484934 -22.008197 -1.2900083
-17.865777 -22.008197 -1.2900083
-19.246566 -22.008197 -1.2900083
-20.627408 -22.008197 -1.2900083
-22.008197 -22.008197 -1.2900083
-23.38904 -22.008197 -1.2900083
-24.769829 -22.008197 -1.2900083
-26.150671 -22.008197 -1.2900083
-27.53744 -22.008197 -1.2900083
-1.2900083 -23.38904 -1.2900083
-2.6768037 -23.38904 -1.2900083
-4.0576141 -23.38904 -1.2900083
-5.4384298 -23.38904 -1.2900083
-6.8192509 -23.38904 -1.2900083
-8.2000399 -23.38904 -1.2900083
-9.5808824 -23.38904 -1.2900083
-10.961671 -23.38904 -1.2900083
-12.342514 -23.38904 -1.2900083
-13.723303 -23.38904 -1.2900083
-15.104145 -23.38904 -1.2900083
-16.484934 -23.38904 -1.2900083
-17.865777 -23.38904 -1.2900083
-19.246566 -23.38904 -1.2900083
-20.627408 -23.38904 -1.2900083
-22.008197 -23.38904 -1.2900083
-23.38904 -23.38904 -1.2900083
-24.769829 -23.38904 -1.2900083
-26.150671 -23.38904 -1.2900083
-27.53744 -23.38904 -1.2900083
-1.2900083 -24.769829 -1.2900083
-2.6768037 -24.769829 -1.2900083
-4.0576141 -24.769829 -1.2900083
-5.4384298 -24.769829 -1.2900083
-6.8192509 -24.769829 -1.2900083
-8.2000399 -24.769829 -1.2900083
-9.5808824 -24.769829 -1.2900083
-10.961671 -24.769829 -1.2900083
-12.342514 -24.769829 -1.2900083
-13.723303 -24.769829 -1.2900083
-15.104145 -24.769829 -1.2900083
-16.484934 -24.769829 -1.2900083
-17.865777 -24.769829 -1.2900083
-19.246566 -24.769829 -1.2900083
-20.627408 -24.769829 -1.2900083
-22.008197 -24.769829 -1.2900083
-23.38904 -24.769829 -1.2900083
-24.769829 -24.769829 -1.2900083
-26.150671 -24.769829 -1.2900083
-27.53744 -24.769829 -1.2900083
-1.2900083 -26.150671 -1.2900083
-2.6768037 -26.150671 -1.2900083
-4.0576141 -26.150671 -1.2900083
-5.4384298 -26.150671 -1.2900083
-6.8192509 -26.150671 -1.2900083
-8.2000399 -26.150671 -1.2900083
-9.5808824 -26.150671 -1.2900083
-10.961671 -26.150671 -1.2900083
-12.342514 -26.150671 -1.2900083
-13.723303 -26.150671 -1.2900083
-15.104145 -26.150671 -1.2900083
-16.484934 -26.150671 -1.2900083
-17.865777 -26.150671 -1.2900083
-19.246566 -26.150671 -1.2900083
-20.627408 -26.150671 -1.2900083
-22.008197 -26.150671 -1.2900083
-23.38904 -26.150671 -1.2900083
-24.769829 -26.150671 -1.2900083
-26.150671 -26.150671 -1.2900083
-27.53744 -26.150671 -1.2900083
-1.2900083 -27.53744 -1.2900083
-2.6768037 -27.53744 -1.2900083
-4.0576141 -27.53744 -1.2900083
-5.4384298 -27.53744 -1.2900083
-6.8192509 -27.53744 -1.2900083
-8.2000399 -27.53744 -1.2900083
-9.5808824 -27.53744 -1.2900083
-10.961671 -27.53744 -1.2900083
-12.342514 -27.53744 -1.2900083
-13.723303 -27.53744 -1.2900083
-15.104145 -27.53744 -1.2900083
-16.484934 -27.53744 -1.2900083
-17.865777 -27.53744 -1.2900083
-19.246566 -27.53744 -1.2900083
-20.627408 -27.53744 -1.2900083
-22.008197 -27.53744 -1.2900083
-23.38904 -27.53744 -1.2900083
-24.769829 -27.53744 -1.2900083
-26.150671 -27.53744 -1.2900083
-27.53744 -27.53744 -1.2900083
-1.2900083 -1.2900083 -2.6768037
-2.6768037 -1.2900083 -2.6768037
-4.0576141 -1.2900083 -2.6768037
-5.4384298 -1.2900083 -2.6768037
-6.8192509 -1.2900083 -2.6768037
-8.2000399 -1.2900083 -2.6768037
-9.5808824 -1.2900083 -2.6768037
-10.961671 -1.2900083 -2.6768037
-12.342514 -1.2900083 -2.6768037
-13.723303 -1.2900083 -2.6768037
-15.104145 -1.2900083 -2.6768037
-16.484934 -1.2900083 -2.6768037
-17.865777 -1.2900083 -2.6768037
-19.246566 -1.2900083 -2.6768037
-20.627408 -1.2900083 -2.6768037
-22.008197 -1.2900083 -2.6768037
-23.38904 -1.2900083 -2.6768037
-24.769829 -1.2900083 -2.6768037
-26.150671 -1.2900083 -2.6768037
-27.53744 -1.2900083 -2.6768037
-1.2900083 -2.6768037 -2.6768037
-2.6768037 -2.6768037 -2.6768037
-4.0576141 -2.6768037 -2.6768037
-5.4384298 -2.6768037 -2.6768037