# vtk DataFile Version 4.0
hesp visualization file
ASCII
DATASET UNSTRUCTURED_GRID
POINTS 3000 double
0.4351877 0.4351877 0.4351877
2.941596 0.4351877 0.4351877
5.4496829 0.4351877 0.4351877
7.9577795 0.4351877 0.4351877
10.465886 0.4351877 0.4351877
12.973934 0.4351877 0.4351877
15.482079 0.4351877 0.4351877
17.990127 0.4351877 0.4351877
20.498272 0.4351877 0.4351877
23.00632 0.4351877 0.4351877
25.514466 0.4351877 0.4351877
28.022514 0.4351877 0.4351877
30.530659 0.4351877 0.4351877
33.038707 0.4351877 0.4351877
35.546852 0.4351877 0.4351877
38.0549 0.4351877 0.4351877
40.563045 0.4351877 0.4351877
43.071093 0.4351877 0.4351877
45.579239 0.4351877 0.4351877
48.085598 0.4351877 0.4351877
0.4351877 2.941596 0.4351877
2.941596 2.941596 0.4351877
5.4496829 2.941596 0.4351877
7.9577795 2.941596 0.4351877
10.465886 2.941596 0.4351877
12.973934 2.941596 0.4351877
15.482079 2.941596 0.4351877
17.990127 2.941596 0.4351877
20.498272 2.941596 0.4351877
23.00632 2.941596 0.4351877
25.514466 2.941596 0.4351877
28.022514 2.941596 0.4351877
30.530659 2.941596 0.4351877
33.038707 2.941596 0.4351877
35.546852 2.941596 0.4351877
38.0549 2.941596 0.4351877
40.563045 2.941596 0.4351877
43.071093 2.941596 0.4351877
45.579239 2.941596 0.4351877
48.085598 2.941596 0.4351877
0.4351877 5.4496829 0.4351877
2.941596 5.4496829 0.4351877
5.4496829 5.4496829 0.4351877
7.9577795 5.4496829 0.4351877
10.465886 5.4496829 0.4351877
12.973934 5.4496829 0.4351877
15.482079 5.4496829 0.4351877
17.990127 5.4496829 0.4351877
20.498272 5.4496829 0.4351877
23.00632 5.4496829 0.4351877
25.514466 5.4496829 0.4351877
28.022514 5.4496829 0.4351877
30.530659 5.4496829 0.4351877
33.038707 5.4496829 0.4351877
35.546852 5.4496829 0.4351877
38.0549 5.4496829 0.4351877
40.563045 5.4496829 0.4351877
43.071093 5.4496829 0.4351877
45.579239 5.4496829 0.4351877
48.085598 5.4496829 0.4351877
0.4351877 7.9577795 0.4351877
2.941596 7.9577795 0.4351877
5.4496829 7.9577795 0.4351877
7.9577795 7.9577795 0.4351877
10.465886 7.9577795 0.4351877
12.973934 7.9577795 0.4351877
15.482079 7.9577795 0.4351877
17.990127 7.9577795 0.4351877
20.498272 7.9577795 0.4351877
23.00632 7.9577795 0.4351877
25.514466 7.9577795 0.4351877
28.022514 7.9577795 0.4351877
30.530659 7.9577795 0.4351877
33.038707 7.9577795 0.4351877
35.546852 7.9577795 0.4351877
38.0549 7.9577795 0.4351877
40.563045 7.9577795 0.4351877
43.071093 7.9577795 0.4351877
45.579239 7.9577795 0.4351877
48.085598 7.9577795 0.4351877
0.4351877 10.465886 0.4351877
2.941596 10.465886 0.4351877
5.4496829 10.465886 0.4351877
7.9577795 10.465886 0.4351877
10.465886 10.465886 0.4351877
12.973934 10.465886 0.4351877
15.482079 10.465886 0.4351877
17.990127 10.465886 0.4351877
20.498272 10.465886 0.4351877
23.00632 10.465886 0.4351877
25.514466 10.465886 0.4351877
28.022514 10.465886 0.4351877
30.530659 10.465886 0.4351877
33.038707 10.465886 0.4351877
35.546852 10.465886 0.4351877
38.0549 10.465886 0.4351877
40.563045 10.465886 0.4351877
43.071093 10.465886 0.4351877
45.579239 10.465886 0.4351877
48.085598 10.465886 0.4351877
0.4351877 12.973934 0.4351877
2.941596 12.973934 0.4351877
5.4496829 12.973934 0.4351877
7.9577795 12.973934 0.4351877
10.465886 12.973934 0.4351877
12.973934 12.973934 0.4351877
15.482079 12.973934 0.4351877
17.990127 12.973934 0.4351877
20.498272 12.973934 0.4351877
23.00632 12.973934 0.4351877
25.514466 12.973934 0.4351877
28.022514 12.973934 0.4351877
30.530659 12.973934 0.4351877
33.038707 12.973934 0.4351877
35.546852 12.973934 0.4351877
38.0549 12.973934 0.4351877
40.563045 12.973934 0.4351877
43.071093 12.973934 0.4351877
45.579239 12.973934 0.4351877
48.085598 12.973934 0.4351877
0.4351877 15.482079 0.4351877
2.941596 15.482079 0.4351877
5.4496829 15.482079 0.4351877
7.9577795 15.482079 0.4351877
10.465886 15.482079 0.4351877
12.973934 15.482079 0.4351877
15.482079 15.482079 0.4351877
17.990127 15.482079 0.4351877
20.498272 15.482079 0.4351877
23.00632 15.482079 0.4351877
25.514466 15.482079 0.4351877
28.022514 15.482079 0.4351877
30.530659 15.482079 0.4351877
33.038707 15.482079 0.4351877
35.546852 15.482079 0.4351877
38.0549 15.482079 0.4351877
40.563045 15.482079 0.4351877
43.071093 15.482079 0.4351877
45.579239 15.482079 0.4351877
48.085598 15.482079 0.4351877
0.4351877 17.990127 0.4351877
2.941596 17.990127 0.4351877
5.4496829 17.990127 0.4351877
7.9577795 17.990127 0.4351877
10.465886 17.990127 0.4351877
12.973934 17.990127 0.4351877
15.482079 17.990127 0.4351877
17.990127 17.990127 0.4351877
20.498272 17.990127 0.4351877
23.00632 17.990127 0.4351877
25.514466 17.990127 0.4351877
28.022514 17.990127 0.4351877
30.530659 17.990127 0.4351877
33.038707 17.990127 0.4351877
35.546852 17.990127 0.4351877
38.0549 17.990127 0.4351877
40.563045 17.990127 0.4351877
43.071093 17.990127 0.4351877
45.579239 17.990127 0.4351877
48.085598 17.990127 0.4351877
0.4351877 20.498272 0.4351877
2.941596 20.498272 0.4351877
5.4496829 20.498272 0.4351877
7.9577795 20.498272 0.4351877
10.465886 20.498272 0.4351877
12.973934 20.498272 0.4351877
15.482079 20.498272 0.4351877
17.990127 20.498272 0.4351877
20.498272 20.498272 0.4351877
23.00632 20.498272 0.4351877
25.514466 20.498272 0.4351877
28.022514 20.498272 0.4351877
30.530659 20.498272 0.4351877
33.038707 20.498272 0.4351877
35.546852 20.498272 0.4351877
38.0549 20.498272 0.4351877
40.563045 20.498272 0.4351877
43.071093 20.498272 0.4351877
45.579239 20.498272 0.4351877
48.085598 20.498272 0.4351877
0.4351877 23.00632 0.4351877
2.941596 23.00632 0.4351877
5.4496829 23.00632 0.4351877
7.9577795 23.00632 0.4351877
10.465886 23.00632 0.4351877
12.973934 23.00632 0.4351877
15.482079 23.00632 0.4351877
17.990127 23.00632 0.4351877
20.498272 23.00632 0.4351877
23.00632 23.00632 0.4351877
25.514466 23.00632 0.4351877
28.022514 23.00632 0.4351877
30.530659 23.00632 0.4351877
33.038707 23.00632 0.4351877
35.546852 23.00632 0.4351877
38.0549 23.00632 0.4351877
40.563045 23.00632 0.4351877
43.071093 23.00632 0.4351877
45.579239 23.00632 0.4351877
48.085598 23.00632 0.4351877
0.4351877 25.514466 0.4351877
2.941596 25.514466 0.4351877
5.4496829 25.514466 0.4351877
7.9577795 25.514466 0.4351877
10.465886 25.514466 0.4351877
12.973934 25.514466 0.4351877
15.482079 25.514466 0.4351877
17.990127 25.514466 0.4351877
20.498272 25.514466 0.4351877
23.00632 25.514466 0.4351877
25.514466 25.514466 0.4351877
28.022514 25.514466 0.4351877
30.530659 25.514466 0.4351877
33.038707 25.514466 0.4351877
35.546852 25.514466 0.4351877
38.0549 25.514466 0.4351877
40.563045 25.514466 0.4351877
43.071093 25.514466 0.4351877
45.579239 25.514466 0.4351877
48.085598 25.514466 0.4351877
0.4351877 28.022514 0.4351877
2.941596 28.022514 0.4351877
5.4496829 28.022514 0.4351877
7.9577795 28.022514 0.4351877
10.465886 28.022514 0.4351877
12.973934 28.022514 0.4351877
15.482079 28.022514 0.4351877
17.990127 28.022514 0.4351877
20.498272 28.022514 0.4351877
23.00632 28.022514 0.4351877
25.514466 28.022514 0.4351877
28.022514 28.022514 0.4351877
30.530659 28.022514 0.4351877
33.038707 28.022514 0.4351877
35.546852 28.022514 0.4351877
38.0549 28.022514 0.4351877
40.563045 28.022514 0.4351877
43.071093 28.022514 0.4351877
45.579239 28.022514 0.4351877
48.085598 28.022514 0.4351877
0.4351877 30.530659 0.4351877
2.941596 30.530659 0.4351877
5.4496829 30.530659 0.4351877
7.9577795 30.530659 0.4351877
10.465886 30.530659 0.4351877
12.973934 30.530659 0.4351877
15.482079 30.530659 0.4351877
17.990127 30.530659 0.4351877
20.498272 30.530659 0.4351877
23.00632 30.530659 0.4351877
25.514466 30.530659 0.4351877
28.022514 30.530659 0.4351877
30.530659 30.530659 0.4351877
33.038707 30.530659 0.4351877
35.546852 30.530659 0.4351877
38.0549 30.530659 0.4351877
40.563045 30.530659 0.4351877
43.071093 30.530659 0.4351877
45.579239 30.530659 0.4351877
48.085598 30.530659 0.4351877
0.4351877 33.038707 0.4351877
2.941596 33.038707 0.4351877
5.4496829 33.038707 0.4351877
7.9577795 33.038707 0.4351877
10.465886 33.038707 0.4351877
12.973934 33.038707 0.4351877
15.482079 33.038707 0.4351877
17.990127 33.038707 0.4351877
20.498272 33.038707 0.4351877
23.00632 33.038707 0.4351877
25.514466 33.038707 0.4351877
28.022514 33.038707 0.4351877
30.530659 33.038707 0.4351877
33.038707 33.038707 0.4351877
35.546852 33.038707 0.4351877
38.0549 33.038707 0.4351877
40.563045 33.038707 0.4351877
43.071093 33.038707 0.4351877
45.579239 33.038707 0.4351877
48.085598 33.038707 0.4351877
0.4351877 35.546852 0.4351877
2.941596 35.546852 0.4351877
5.4496829 35.546852 0.4351877
7.9577795 35.546852 0.4351877
10.465886 35.546852 0.4351877
12.973934 35.546852 0.4351877
15.482079 35.546852 0.4351877
17.990127 35.546852 0.4351877
20.498272 35.546852 0.4351877
23.00632 35.546852 0.4351877
25.514466 35.546852 0.4351877
28.022514 35.546852 0.4351877
30.530659 35.546852 0.4351877
33.038707 35.546852 0.4351877
35.546852 35.546852 0.4351877
38.0549 35.546852 0.4351877
40.563045 35.546852 0.4351877
43.071093 35.546852 0.4351877
45.579239 35.546852 0.4351877
48.085598 35.546852 0.4351877
0.4351877 38.0549 0.4351877
2.941596 38.0549 0.4351877
5.4496829 38.0549 0.4351877
7.9577795 38.0549 0.4351877
10.465886 38.0549 0.4351877
12.973934 38.0549 0.4351877
15.482079 38.0549 0.4351877
17.990127 38.0549 0.4351877
20.498272 38.0549 0.4351877
23.00632 38.0549 0.4351877
25.514466 38.0549 0.4351877
28.022514 38.0549 0.4351877
30.530659 38.0549 0.4351877
33.038707 38.0549 0.4351877
35.546852 38.0549 0.4351877
38.0549 38.0549 0.4351877
40.563045 38.0549 0.4351877
43.071093 38.0549 0.4351877
45.579239 38.0549 0.4351877
48.085598 38.0549 0.4351877
0.4351877 40.563045 0.4351877
2.941596 40.563045 0.4351877
5.4496829 40.563045 0.4351877
7.9577795 40.563045 0.4351877
10.465886 40.563045 0.4351877
12.973934 40.563045 0.4351877
15.482079 40.563045 0.4351877
17.990127 40.563045 0.4351877
20.498272 40.563045 0.4351877
23.00632 40.563045 0.4351877
25.514466 40.563045 0.4351877
28.022514 40.563045 0.4351877
30.530659 40.563045 0.4351877
33.038707 40.563045 0.4351877
[...]
POINT_DATA 3000
SCALARS m double
LOOKUP_TABLE default
1
1
1
1
1
1
1
1
1
1
1
1
1
1
1
1
1
1
1
1
1
1
1
1
1
1
1
1
1
1
1
1
1
1
1
1
1
1
1
1
1
1
1
1
1
1
1
1
1
1
1
1
1
1
1
1
1
1
1
1
1
1
1
1
1
1
1
1
1
1
1
1
1
1
1
1
1
1
1
1
1
1
1
1
1
1
1
1
1
1
1
1
1
1
1
1
1
1
1
1
1
1
1
1
1
1
1
1
1
1
1
1
1
1
1
1
1
1
1
1
1
1
1
1
1
1
1
1
1
1
1
1
1
1
1
1
1
1
1
1
1
1
1
1
1
1
1
1
1
1
1
1
1
1
1
1
1
1
1
1
1
1
1
1
1
1
1
1
1
1
1
1
1
1
1
1
1
1
1
1
1
1
1
1
1
1
1
1
1
1
1
1
1
1
1
1
1
1
1
1
1
1
1
1
1
1
1
1
1
1
1
1
1
1
1
1
1
1
1
1
1
1
1
1
1
1
1
1
1
1
1
1
1
1
1
1
1
1
1
1
1
1
1
1
1
1
1
1
1
1
1
1
1
1
1
1
1
1
1
1
1
1
1
1
1
1
1
1
1
1
1
1
1
1
1
1
1
1
1
1
1
1
1
1
1
1
1
1
1
1
1
1
1
1
1
1
1
1
1
1
1
1
1
1
1
1
1
1
1
1
1
1
1
1
1
1
1
1
1
1
1
1
1
1
1
1
1
1
1
1
1
1
1
1
1
1
1
1
1
1
1
1
1
1
1
1
1
1
1
1
1
1
1
1
1
1
1
1
1
1
1
1
1
1
1
1
1
1
1
1
1
1
1
1
1
1
1
1
1
1
1
1
1
1
1
1
1
1
1
1
1
1
1
1
1
1
1
1
1
1
1
1
1
1
1
1
1
1
1
1
1
1
1
1
1
1
1
1
1
1
1
1
1
1
1
1
1
1
1
1
1
1
1
1
1
1
1
1
1
1
1
1
1
1
1
1
1
1
1
1
1
1
1
1
1
1
1
1
1
1
1
1
1
1
1
1
1
1
1
1
1
1
1
1
1
1
1
1
1
1
1
1
1
1
1
1
1
1
1
1
1
1
1
1
1
1
1
1
1
1
1
1
1
1
1
1
1
1
1
1
1
1
1
1
1
1
1
1
1
1
1
1
1
1
1
1
1
1
1
1
1
1
1
1
1
1
1
1
1
1
1
1
1
1
1
1
1
1
1
1
1
1
1
1
1
1
1
1
1
1
1
1
1
1
1
1
1
1
1
1
1
1
1
1
1
1
1
1
1
1
1
1
1
1
1
1
1
1
1
1
1
1
1
1
1
1
1
1
1
1
1
1
1
1
1
1
1
1
1
1
1
1
1
1
1
1
1
1
1
1
1
1
1
1
1
1
1
1
1
1
1
1
1
1
1
1
1
1
1
1
1
1
1
1
1
1
1
1
1
1
1
1
1
1
1
1
1
1
1
1
1
1
1
1
1
1
1
1
1
1
1
1
1
1
1
1
1
1
1
1
1
1
1
1
1
1
1
1
1
1
1
1
1
1
1
1
1
1
1
1
1
1
1
1
1
1
1
1
1
1
1
1
1
1
1
1
1
1
1
1
1
1
1
1
1
1
1
1
1
1
1
1
1
1
1
1
1
1
1
1
1
1
1
1
1
1
1
1
1
1
1
1
1
1
1
1
1
1
1
1
1
1
1
1
1
1
1
1
1
1
1
1
1
1
1
1
1
1
1
1
1
1
1
1
1
1
1
1
1
1
1
1
1
1
1
1
1
1
1
1
1
1
1
1
1
1
1
1
1
1
1
1
1
1
1
1
1
1
1
1
1
1
1
1
1
1
1
1
1
1
1
1
1
1
1
1
1
1
1
1
1
1
1
1
1
1
1
1
1
1
1
1
1
1
1
1
1
1
1
1
1
1
1
1
1
1
1
1
1
1
1
1
1
1
1
1
1
1
1
1
1
1
1
1
1
1
1
1
1
1
1
1
1
1
1
1
1
1
1
1
1
1
1
1
1
1
1
1
1
1
1
1
1
1
1
1
1
1
1
1
1
1
1
1
1
1
1
1
1
1
1
1
1
1
1
1
1
1
1
1
1
1
1
1
1
1
1
1
1
1
1
1
1
1
1
1
1
1
1
1
1
1
1
1
1
1
1
1
1
1
1
1
1
1
1
1
1
1
1
1
1
1
1
1
1
1
1
1
1
1
1
1
1
1
1
1
1
1
1
1
1
1
1
1
1
1
1
1
1
1
1
1
1
1
1
1
1
1
1
1
1
1
1
1
1
1
1
1
1
1
1
1
1
1
1
1
1
1
1
1
1
1
1
1
1
1
1
1
1
1
1
1
1
1
1
1
1
1
1
1
1
1
1
1
1
1
1
1
1
1
1
1
1
1
1
1
1
1
1
1
1
1
1
1
1
1
1
1
1
1
1
1
1
1
1
1
1
1
1
1
1
1
1
1
1
1
1
1
1
1
1
1
1
1
1
1
1
1
1
1
1
1
1
1
1
1
1
1
1
1
1
1
1
1
1
1
1
1
1
1
1
1
1
1
1
1
1
1
1
1
1
1
1
1
1
1
1
1
1
1
1
1
1
1
1
1
1
1
1
1
1
1
1
1
1
1
1
1
1
1
1
1
1
1
1
1
1
1
1
1
1
1
1
1
1
1
1
1
1
1
1
1
1
1
1
1
1
1
1
1
1
1
1
1
1
1
1
1
1
1
1
1
1
1
1
1
1
1
1
1
1
1
1
1
1
1
1
1
1
1
1
1
1
1
1
1
1
1
1
1
1
1
1
1
1
1
1
1
1
1
1
1
1
1
1
1
1
1
1
1
1
1
1
1
1
1
1
1
1
1
1
1
1
1
1
1
1
1
1
1
1
1
1
1
1
1
1
1
1
1
1
1
1
1
1
1
1
1
1
1
1
1
1
1
1
1
1
1
1
1
1
1
1
1
1
1
1
1
1
1
1
1
1
1
1
1
1
1
1
1
1
1
1
1
1
1
1
1
1
1
1
1
1
1
1
1
1
1
1
1
1
1
1
1
1
1
1
1
1
1
1
1
1
1
1
1
1
1
1
1
1
1
1
1
1
1
1
1
1
1
1
1
1
1
1
1
1
1
1
1
1
1
1
1
1
1
1
1
1
1
1
1
1
1
1
1
1
1
1
1
1
1
1
1
1
1
1
1
1
1
1
1
1
1
1
1
1
1
1
1
1
1
1
1
1
1
1
1
1
1
1
1
1
1
1
1
1
1
1
1
1
1
1
1
1
1
1
1
1
1
1
1
1
1
1
1
1
1
1
1
1
1
1
1
1
1
1
1
1
1
1
1
1
1
1
1
1
1
1
1
1
1
1
1
1
1
1
1
1
1
1
1
1
1
1
1
1
1
1
1
1
1
1
1
1
1
1
1
1
1
1
1
1
1
1
1
1
1
1
1
1
1
1
1
1
1
1
1
1
1
1
1
1
1
1
1
1
1
1
1
1
1
1
1
1
1
1
1
1
1
1
1
1
1
1
1
1
1
1
1
1
1
1
1
1
1
1
1
1
1
1
1
1
1
1
1
1
1
1
1
1
1
1
1
1
1
1
1
1
1
1
1
1
1
1
1
1
1
1
1
1
1
1
1
1
1
1
1
1
1
1
1
1
1
1
1
1
1
1
1
1
1
1
1
1
1
1
1
1
1
1
1
1
1
1
1
1
1
1
1
1
1
1
1
1
1
1
1
1
1
1
1
1
1
1
1
1
1
1
1
1
1
1
1
1
1
1
1
1
1
1
1
1
1
1
1
1
1
1
1
1
1
1
1
1
1
1
1
1
1
1
1
1
1
1
1
1
1
1
1
1
1
1
1
1
1
1
1
1
1
1
1
1
1
1
1
1
1
1
1
1
1
1
1
1
1
1
1
1
1
1
1
1
1
1
1
1
1
1
1
1
1
1
1
1
1
1
1
1
1
1
1
1
1
1
1
1
1
1
1
1
1
1
1
1
1
1
1
1
1
1
1
1
1
1
1
1
1
1
1
1
1
1
1
1
1
1
1
1
1
1
1
1
1
1
1
1
1
1
1
1
1
1
1
1
1
1
1
1
1
1
1
1
1
1
1
1
1
1
1
1
1
1
1
1
1
1
1
1
1
1
1
1
1
1
1
1
1
1
1
1
1
1
1
1
1
1
1
1
1
1
1
1
1
1
1
1
1
1
1
1
1
1
1
1
1
1
1
1
1
1
1
1
1
1
1
1
1
1
1
1
1
1
1
1
1
1
1
1
1
1
1
1
1
1
1
1
1
1
1
1
1
1
1
1
1
1
1
1
1
1
1
1
1
1
1
1
1
1
1
1
1
1
1
1
1
1
1
1
1
1
1
1
1
1
1
1
1
1
1
1
1
1
1
1
1
1
1
1
1
1
1
1
1
1
1
1
1
1
1
1
1
1
1
1
1
1
1
1
1
1
1
1
1
1
1
1
1
1
1
1
1
1
1
1
1
1
1
1
1
1
1
1
1
1
1
1
1
1
1
1
1
1
1
1
1
1
1
1
1
1
1
1
1
1
1
1
1
1
1
1
1
1
1
1
1
1
1
1
1
1
1
1
1
1
1
1
1
1
1
1
1
1
1
1
1
1
1
1
1
1
1
1
1
1
1
1
1
1
1
1
1
1
1
1
1
1
1
1
1
1
1
1
1
1
1
1
1
1
1
1
1
1
1
1
1
1
1
1
1
1
1
1
1
1
1
1
1
1
1
1
1
1
1
1
1
1
1
1
1
1
1
1
1
1
1
1
1
1
1
1
1
1
1
1
1
1
1
1
1
1
1
1
1
1
1
1
1
1
1
1
1
1
1
1
1
1
1
1
1
1
1
1
1
1
1
1
1
1
1
1
1
1
1
1
1
1
1
1
1
1
1
1
1
1
1
1
1
1
1
1
1
1
1
1
1
1
1
1
1
1
1
1
1
1
1
1
1
1
1
1
1
1
1
1
1
1
1
1
1
1
1
1
1
1
1
1
1
1
1
1
1
1
1
1
1
1
1
1
1
1
1
1
1
1
1
1
1
1
1
1
1
1
1
1
1
1
1
1
1
1
1
1
1
1
1
1
1
1
1
1
1
1
1
1
1
1
1
1
1
1
1
1
1
1
1
1
1
1
1
1
1
1
1
1
1
1
1
1
1
1
1
1
1
1
1
1
1
1
1
1
1
1
1
1
1
1
1
1
1
1
1
1
1
1
1
1
1
1
1
1
1
1
1
1
1
1
1
1
1
1
1
1
1
1
1
1
1
1
1
1
1
1
1
1
1
1
1
1
1
1
1
1
1
1
1
1
1
1
1
1
1
1
1
1
1
1
1
1
1
1
1
1
1
1
1
1
1
1
1
1
1
1
1
1
1
1
1
1
1
1
1
1
1
1
1
1
1
1
1
1
1
1
1
1
1
1
1
1
1
1
1
1
1
1
1
1
1
1
1
1
1
1
1
1
1
1
1
1
1
1
1
1
1
1
1
1
1
1
1
1
1
1
1
1
1
1
1
1
1
1
1
1
1
1
1
1
1
1
1
1
1
1
1
1
1
1
1
1
1
1
1
1
1
1
1
1
1
1
1
1
1
1
1
1
1
1
1
1
1
1
1
1
1
1
1
1
1
1
1
1
1
1
1
1
1
1
1
1
1
1
1
1
1
1
1
1
1
1
1
1
1
1
1
1
1
1
1
1
1
1
1
1
1
1
1
1
1
1
1
1
1
1
1
1
1
1
1
1
1
1
1
1
1
1
1
1
1
1
1
1
1
1
1
1
1
1
1
1
1
1
1
1
1
1
1
1
1
1
1
1
1
1
1
1
1
1
1
1
1
1
1
1
1
1
1
1
1
1
1
1
1
1
1
1
1
1
1
1
1
1
1
1
1
1
1
1
1
1
1
1
1
1
1
1
1
1
1
1
1
1
1
1
1
1
1
1
1
1
1
1
1
1
1
1
1
1
1
1
1
1
1
1
1
1
1
1
1
1
1
1
1
1
1
1
1
1
1
1
1
1
1
1
1
1
1
1
1
1
1
1
1
1
1
1
1
1
1
1
1
1
1
1
1
1
1
1
1
1
1
1
1
1
1
1
1
1
1
1
1
1
1
1
1
1
1
1
1
1
1
1
1
1
1
1
1
1
1
1
1
1
1
1
1
1
1
1
1
1
1
1
1
1
1
1
1
1
1
1
1
1
1
1
1
1
1
1
1
1
1
1
1
1
1
1
1
1
1
1
1
1
1
1
1
1
1
1
1
1
1
1
1
1
1
1
1
1
1
1
1
1
1
1
1
1
1
1
1
1
1
1
1
1
1
1
1
1
1
1
1
1
1
1
1
1
1
1
1
1
1
1
1
1
1
1
1
1
1
1
1
1
1
1
1
1
1
1
1
1
1
1
1
1
1
1
1
1
1
1
1
1
1
1
1
1
1
1
1
1
1
1
1
1
1
1
1
1
1
1
1
1
1
1
1
1
1
1
1
1
1
1
1
1
1
1
1
1
1
1
1
1
1
1
1
1
1
1
1
1
1
1
1
1
1
1
1
1
1
1
1
1
1
1
1
1
1
1
1
1
1
1
1
1
1
1
1
1
1
1
1
1
1
1
1
1
1
1
1
1
1
1
1
1
1
1
1
1
1
1
1
1
1
1
1
1
1
1
1
1
1
1
1
1
1
1
1
1
1
1
1
1
1
1
1
1
1
1
1
1
1
VECTORS v double
-0.55670372 -0.55670372 -0.55670372
-1.1640956 -0.55670372 -0.55670372
-1.7645861 -0.55670372 -0.55670372
-2.365079 -0.55670372 -0.55670372
-2.9655742 -0.55670372 -0.55670372
-3.5660555 -0.55670372 -0.55670372
-4.16656 -0.55670372 -0.55670372
-4.7670412 -0.55670372 -0.55670372
-5.3675457 -0.55670372 -0.55670372
-5.9680269 -0.55670372 -0.55670372
-6.5685315 -0.55670372 -0.55670372
-7.1690127 -0.55670372 -0.55670372
-7.7695172 -0.55670372 -0.55670372
-8.3699984 -0.55670372 -0.55670372
-8.970503 -0.55670372 -0.55670372
-9.5709842 -0.55670372 -0.55670372
-10.171489 -0.55670372 -0.55670372
-10.77197 -0.55670372 -0.55670372
-11.372474 -0.55670372 -0.55670372
-11.979855 -0.55670372 -0.55670372
-0.55670372 -1.1640956 -0.55670372
-1.1640956 -1.1640956 -0.55670372
-1.7645861 -1.1640956 -0.55670372
-2.365079 -1.1640956 -0.55670372
-2.9655742 -1.1640956 -0.55670372
-3.5660555 -1.1640956 -0.55670372
-4.16656 -1.1640956 -0.55670372
-4.7670412 -1.1640956 -0.55670372
-5.3675457 -1.1640956 -0.55670372
-5.9680269 -1.1640956 -0.55670372
-6.5685315 -1.1640956 -0.55670372
-7.1690127 -1.1640956 -0.55670372
-7.7695172 -1.1640956 -0.55670372
-8.3699984 -1.1640956 -0.55670372
-8.970503 -1.1640956 -0.55670372
-9.5709842 -1.1640956 -0.55670372
-10.171489 -1.1640956 -0.55670372
-10.77197 -1.1640956 -0.55670372
-11.372474 -1.1640956 -0.55670372
-11.979855 -1.1640956 -0.55670372
-0.55670372 -1.7645861 -0.55670372
-1.1640956 -1.7645861 -0.55670372
-1.7645861 -1.7645861 -0.55670372
-2.365079 -1.7645861 -0.55670372
-2.9655742 -1.7645861 -0.55670372
-3.5660555 -1.7645861 -0.55670372
-4.16656 -1.7645861 -0.55670372
-4.7670412 -1.7645861 -0.55670372
-5.3675457 -1.7645861 -0.55670372
-5.9680269 -1.7645861 -0.55670372
-6.5685315 -1.7645861 -0.55670372
-7.1690127 -1.7645861 -0.55670372
-7.7695172 -1.7645861 -0.55670372
-8.3699984 -1.7645861 -0.55670372
-8.970503 -1.7645861 -0.55670372
-9.5709842 -1.7645861 -0.55670372
-10.171489 -1.7645861 -0.55670372
-10.77197 -1.7645861 -0.55670372
-11.372474 -1.7645861 -0.55670372
-11.979855 -1.7645861 -0.55670372
-0.55670372 -2.365079 -0.55670372
-1.1640956 -2.365079 -0.55670372
-1.7645861 -2.365079 -0.55670372
-2.365079 -2.365079 -0.55670372
-2.9655742 -2.365079 -0.55670372
-3.5660555 -2.365079 -0.55670372
-4.16656 -2.365079 -0.55670372
-4.7670412 -2.365079 -0.55670372
-5.3675457 -2.365079 -0.55670372
-5.9680269 -2.365079 -0.55670372
-6.5685315 -2.365079 -0.55670372
-7.1690127 -2.365079 -0.55670372
-7.7695172 -2.365079 -0.55670372
-8.3699984 -2.365079 -0.55670372
-8.970503 -2.365079 -0.55670372
-9.5709842 -2.365079 -0.55670372
-10.171489 -2.365079 -0.55670372
-10.77197 -2.365079 -0.55670372
-11.372474 -2.365079 -0.55670372
-11.979855 -2.365079 -0.55670372
-0.55670372 -2.9655742 -0.55670372
-1.1640956 -2.9655742 -0.55670372
-1.7645861 -2.9655742 -0.55670372
-2.365079 -2.9655742 -0.55670372
-2.9655742 -2.9655742 -0.55670372
-3.5660555 -2.9655742 -0.55670372
-4.16656 -2.9655742 -0.55670372
-4.7670412 -2.9655742 -0.55670372
-5.3675457 -2.9655742 -0.55670372
-5.9680269 -2.9655742 -0.55670372
-6.5685315 -2.9655742 -0.55670372
-7.1690127 -2.9655742 -0.55670372
-7.7695172 -2.9655742 -0.55670372
-8.3699984 -2.9655742 -0.55670372
-8.970503 -2.9655742 -0.55670372
-9.5709842 -2.9655742 -0.55670372
-10.171489 -2.9655742 -0.55670372
-10.77197 -2.9655742 -0.55670372
-11.372474 -2.9655742 -0.55670372
-11.979855 -2.9655742 -0.55670372
-0.55670372 -3.5660555 -0.55670372
-1.1640956 -3.5660555 -0.55670372
-1.7645861 -3.5660555 -0.55670372
-2.365079 -3.5660555 -0.55670372
-2.9655742 -3.5660555 -0.55670372
-3.5660555 -3.5660555 -0.55670372
-4.16656 -3.5660555 -0.55670372
-4.7670412 -3.5660555 -0.55670372
-5.3675457 -3.5660555 -0.55670372
-5.9680269 -3.5660555 -0.55670372
-6.5685315 -3.5660555 -0.55670372
-7.1690127 -3.5660555 -0.55670372
-7.7695172 -3.5660555 -0.55670372
-8.3699984 -3.5660555 -0.55670372
-8.970503 -3.5660555 -0.55670372
-9.5709842 -3.5660555 -0.55670372
-10.171489 -3.5660555 -0.55670372
-10.77197 -3.5660555 -0.55670372
-11.372474 -3.5660555 -0.55670372
-11.979855 -3.5660555 -0.55670372
-0.55670372 -4.16656 -0.55670372
-1.1640956 -4.16656 -0.55670372
-1.7645861 -4.16656 -0.55670372
-2.365079 -4.16656 -0.55670372
-2.9655742 -4.16656 -0.55670372
-3.5660555 -4.16656 -0.55670372
-4.16656 -4.16656 -0.55670372
-4.7670412 -4.16656 -0.55670372
-5.3675457 -4.16656 -0.55670372
-5.9680269 -4.16656 -0.55670372
-6.5685315 -4.16656 -0.55670372
-7.1690127 -4.16656 -0.55670372
-7.7695172 -4.16656 -0.55670372
-8.3699984 -4.16656 -0.55670372
-8.970503 -4.16656 -0.55670372
-9.5709842 -4.16656 -0.55670372
-10.171489 -4.16656 -0.55670372
-10.77197 -4.16656 -0.55670372
-11.372474 -4.16656 -0.55670372
-11.979855 -4.16656 -0.55670372
-0.55670372 -4.7670412 -0.55670372
-1.1640956 -4.7670412 -0.55670372
-1.7645861 -4.7670412 -0.55670372
-2.365079 -4.7670412 -0.55670372
-2.9655742 -4.7670412 -0.55670372
-3.5660555 -4.7670412 -0.55670372
-4.16656 -4.7670412 -0.55670372
-4.7670412 -4.7670412 -0.55670372
-5.3675457 -4.7670412 -0.55670372
-5.9680269 -4.7670412 -0.55670372
-6.5685315 -4.7670412 -0.55670372
-7.1690127 -4.7670412 -0.55670372
-7.7695172 -4.7670412 -0.55670372
-8.3699984 -4.7670412 -0.55670372
-8.970503 -4.7670412 -0.55670372
-9.5709842 -4.7670412 -0.55670372
-10.171489 -4.7670412 -0.55670372
-10.77197 -4.7670412 -0.55670372
-11.372474 -4.7670412 -0.55670372
-11.979855 -4.7670412 -0.55670372
-0.55670372 -5.3675457 -0.55670372
-1.1640956 -5.3675457 -0.55670372
-1.7645861 -5.3675457 -0.55670372
-2.365079 -5.3675457 -0.55670372
-2.9655742 -5.3675457 -0.55670372
-3.5660555 -5.3675457 -0.55670372
-4.16656 -5.3675457 -0.55670372
-4.7670412 -5.3675457 -0.55670372
-5.3675457 -5.3675457 -0.55670372
-5.9680269 -5.3675457 -0.55670372
-6.5685315 -5.3675457 -0.55670372
-7.1690127 -5.3675457 -0.55670372
-7.7695172 -5.3675457 -0.55670372
-8.3699984 -5.3675457 -0.55670372
-8.970503 -5.3675457 -0.55670372
-9.5709842 -5.3675457 -0.55670372
-10.171489 -5.3675457 -0.55670372
-10.77197 -5.3675457 -0.55670372
-11.372474 -5.3675457 -0.55670372
-11.979855 -5.3675457 -0.55670372
-0.55670372 -5.9680269 -0.55670372
-1.1640956 -5.9680269 -0.55670372
-1.7645861 -5.9680269 -0.55670372
-2.365079 -5.9680269 -0.55670372
-2.9655742 -5.9680269 -0.55670372
-3.5660555 -5.9680269 -0.55670372
-4.16656 -5.9680269 -0.55670372
-4.7670412 -5.9680269 -0.55670372
-5.3675457 -5.9680269 -0.55670372
-5.9680269 -5.9680269 -0.55670372
-6.5685315 -5.9680269 -0.55670372
-7.1690127 -5.9680269 -0.55670372
-7.7695172 -5.9680269 -0.55670372
-8.3699984 -5.9680269 -0.55670372
-8.970503 -5.9680269 -0.55670372
-9.5709842 -5.9680269 -0.55670372
-10.171489 -5.9680269 -0.55670372
-10.77197 -5.9680269 -0.55670372
-11.372474 -5.9680269 -0.55670372
-11.979855 -5.9680269 -0.55670372
-0.55670372 -6.5685315 -0.55670372
-1.1640956 -6.5685315 -0.55670372
-1.7645861 -6.5685315 -0.55670372
-2.365079 -6.5685315 -0.55670372
-2.9655742 -6.5685315 -0.55670372
-3.5660555 -6.5685315 -0.55670372
-4.16656 -6.5685315 -0.55670372
-4.7670412 -6.5685315 -0.55670372
-5.3675457 -6.5685315 -0.55670372
-5.9680269 -6.5685315 -0.55670372
-6.5685315 -6.5685315 -0.55670372
-7.1690127 -6.5685315 -0.55670372
-7.7695172 -6.5685315 -0.55670372
-8.3699984 -6.5685315 -0.55670372
-8.970503 -6.5685315 -0.55670372
-9.5709842 -6.5685315 -0.55670372
-10.171489 -6.5685315 -0.55670372
-10.77197 -6.5685315 -0.55670372
-11.372474 -6.5685315 -0.55670372
-11.979855 -6.5685315 -0.55670372
-0.55670372 -7.1690127 -0.55670372
-1.1640956 -7.1690127 -0.55670372
-1.7645861 -7.1690127 -0.55670372
-2.365079 -7.1690127 -0.55670372
-2.9655742 -7.1690127 -0.55670372
-3.5660555 -7.1690127 -0.55670372
-4.16656 -7.1690127 -0.55670372
-4.7670412 -7.1690127 -0.55670372
-5.3675457 -7.1690127 -0.55670372
-5.9680269 -7.1690127 -0.55670372
-6.5685315 -7.1690127 -0.55670372
-7.1690127 -7.1690127 -0.55670372
-7.7695172 -7.1690127 -0.55670372
-8.3699984 -7.1690127 -0.55670372
-8.970503 -7.1690127 -0.55670372
-9.5709842 -7.1690127 -0.55670372
-10.171489 -7.1690127 -0.55670372
-10.77197 -7.1690127 -0.55670372
-11.372474 -7.1690127 -0.55670372
-11.979855 -7.1690127 -0.55670372
-0.55670372 -7.7695172 -0.55670372
-1.1640956 -7.7695172 -0.55670372
-1.7645861 -7.7695172 -0.55670372
-2.365079 -7.7695172 -0.55670372
-2.9655742 -7.7695172 -0.55670372
-3.5660555 -7.7695172 -0.55670372
-4.16656 -7.7695172 -0.55670372
-4.7670412 -7.7695172 -0.55670372
-5.3675457 -7.7695172 -0.55670372
-5.9680269 -7.7695172 -0.55670372
-6.5685315 -7.7695172 -0.55670372
-7.1690127 -7.7695172 -0.55670372
-7.7695172 -7.7695172 -0.55670372
-8.3699984 -7.7695172 -0.55670372
-8.970503 -7.7695172 -0.55670372
-9.5709842 -7.7695172 -0.55670372
-10.171489 -7.7695172 -0.55670372
-10.77197 -7.7695172 -0.55670372
-11.372474 -7.7695172 -0.55670372
-11.979855 -7.7695172 -0.55670372
-0.55670372 -8.3699984 -0.55670372
-1.1640956 -8.3699984 -0.55670372
-1.7645861 -8.3699984 -0.55670372
-2.365079 -8.3699984 -0.55670372
-2.9655742 -8.3699984 -0.55670372
-3.5660555 -8.3699984 -0.55670372
-4.16656 -8.3699984 -0.55670372
-4.7670412 -8.3699984 -0.55670372
-5.3675457 -8.3699984 -0.55670372
-5.9680269 -8.3699984 -0.55670372
-6.5685315 -8.3699984 -0.55670372
-7.1690127 -8.3699984 -0.55670372
-7.7695172 -8.3699984 -0.55670372
-8.3699984 -8.3699984 -0.55670372
-8.970503 -8.3699984 -0.55670372
-9.5709842 -8.3699984 -0.55670372
-10.171489 -8.3699984 -0.55670372
-10.77197 -8.3699984 -0.55670372
-11.372474 -8.3699984 -0.55670372
-11.979855 -8.3699984 -0.55670372
-0.55670372 -8.970503 -0.55670372
-1.1640956 -8.970503 -0.55670372
-1.7645861 -8.970503 -0.55670372
-2.365079 -8.970503 -0.55670372
-2.9655742 -8.970503 -0.55670372
-3.5660555 -8.970503 -0.55670372
-4.16656 -8.970503 -0.55670372
-4.7670412 -8.970503 -0.55670372
-5.3675457 -8.970503 -0.55670372
-5.9680269 -8.970503 -0.55670372
-6.5685315 -8.970503 -0.55670372
-7.1690127 -8.970503 -0.55670372
-7.7695172 -8.970503 -0.55670372
-8.3699984 -8.970503 -0.55670372
-8.970503 -8.970503 -0.55670372
-9.5709842 -8.970503 -0.55670372
-10.171489 -8.970503 -0.55670372
-10.77197 -8.970503 -0.55670372
-11.372474 -8.970503 -0.55670372
-11.979855 -8.970503 -0.55670372
-0.55670372 -9.5709842 -0.55670372
-1.1640956 -9.5709842 -0.55670372
-1.7645861 -9.5709842 -0.55670372
-2.365079 -9.5709842 -0.55670372
-2.9655742 -9.5709842 -0.55670372
-3.5660555 -9.5709842 -0.55670372
-4.16656 -9.5709842 -0.55670372
-4.7670412 -9.5709842 -0.55670372
-5.3675457 -9.5709842 -0.55670372
-5.9680269 -9.5709842 -0.55670372
-6.5685315 -9.5709842 -0.55670372
-7.1690127 -9.5709842 -0.55670372
-7.7695172 -9.5709842 -0.55670372
-8.3699984 -9.5709842 -0.55670372
-8.970503 -9.5709842 -0.55670372
-9.5709842 -9.5709842 -0.55670372
-10.171489 -9.5709842 -0.55670372
-10.77197 -9.5709842 -0.55670372
-11.372474 -9.5709842 -0.55670372
-11.979855 -9.5709842 -0.55670372
-0.55670372 -10.171489 -0.55670372
-1.1640956 -10.171489 -0.55670372
-1.7645861 -10.171489 -0.55670372
-2.365079 -10.171489 -0.55670372
-2.9655742 -10.171489 -0.55670372
-3.5660555 -10.171489 -0.55670372
-4.16656 -10.171489 -0.55670372
-4.7670412 -10.171489 -0.55670372
-5.3675457 -10.171489 -0.55670372
-5.9680269 -10.171489 -0.55670372
-6.5685315 -10.171489 -0.55670372
-7.1690127 -10.171489 -0.55670372
-7.7695172 -10.171489 -0.55670372
-8.3699984 -10.171489 -0.55670372
-8.970503 -10.171489 -0.55670372
-9.5709842 -10.171489 -0.55670372
-10.171489 -10.171489 -0.55670372
-10.77197 -10.171489 -0.55670372
-11.372474 -10.171489 -0.55670372
-11.979855 -10.171489 -0.55670372
-0.55670372 -10.77197 -0.55670372
-1.1640956 -10.77197 -0.55670372
-1.7645861 -10.77197 -0.55670372
-2.365079 -10.77197 -0.55670372
-2.9655742 -10.77197 -0.55670372
-3.5660555 -10.77197 -0.55670372
-4.16656 -10.77197 -0.55670372
-4.7670412 -10.77197 -0.55670372
-5.3675457 -10.77197 -0.55670372
-5.9680269 -10.77197 -0.55670372
-6.5685315 -10.77197 -0.55670372
-7.1690127 -10.77197 -0.55670372
-7.7695172 -10.77197 -0.55670372
-8.3699984 -10.77197 -0.55670372
-8.970503 -10.77197 -0.55670372
-9.5709842 -10.77197 -0.55670372
-10.171489 -10.77197 -0.55670372
-10.77197 -10.77197 -0.55670372
-11.372474 -10.77197 -0.55670372
-11.979855 -10.77197 -0.55670372
-0.55670372 -11.372474 -0.55670372
-1.1640956 -11.372474 -0.55670372
-1.7645861 -11.372474 -0.55670372
-2.365079 -11.372474 -0.55670372
-2.9655742 -11.372474 -0.55670372
-3.5660555 -11.372474 -0.55670372
-4.16656 -11.372474 -0.55670372
-4.7670412 -11.372474 -0.55670372
-5.3675457 -11.372474 -0.55670372
-5.9680269 -11.372474 -0.55670372
-6.5685315 -11.372474 -0.55670372
-7.1690127 -11.372474 -0.55670372
-7.7695172 -11.372474 -0.55670372
-8.3699984 -11.372474 -0.55670372
-8.970503 -11.372474 -0.55670372
-9.5709842 -11.372474 -0.55670372
-10.171489 -11.372474 -0.55670372
-10.77197 -11.372474 -0.55670372
-11.372474 -11.372474 -0.55670372
-11.979855 -11.372474 -0.55670372
-0.55670372 -11.979855 -0.55670372
-1.1640956 -11.979855 -0.55670372
-1.7645861 -11.979855 -0.55670372
-2.365079 -11.979855 -0.55670372
-2.9655742 -11.979855 -0.55670372
-3.5660555 -11.979855 -0.55670372
-4.16656 -11.979855 -0.55670372
-4.7670412 -11.979855 -0.55670372
-5.3675457 -11.979855 -0.55670372
-5.9680269 -11.979855 -0.55670372
-6.5685315 -11.979855 -0.55670372
-7.1690127 -11.979855 -0.55670372
-7.7695172 -11.979855 -0.55670372
-8.3699984 -11.979855 -0.55670372
-8.970503 -11.979855 -0.55670372
-9.5709842 -11.979855 -0.55670372
-10.171489 -11.979855 -0.55670372
-10.77197 -11.979855 -0.55670372
-11.372474 -11.979855 -0.55670372
-11.979855 -11.979855 -0.55670372
-0.55670372 -0.55670372 -1.1640956
-1.1640956 -0.55670372 -1.1640956
-1.7645861 -0.55670372 -1.1640956
-2.365079 -0.55670372 -1.1640956
-2.9655742 -0.55670372 -1.1640956
-3.5660555 -0.55670372 -1.1640956
-4.16656 -0.55670372 -1.1640956
-4.7670412 -0.55670372 -1.1640956
-5.3675457 -0.55670372 -1.1640956
-5.9680269 -0.55670372 -1.1640956
-6.5685315 -0.55670372 -1.1640956
-7.1690127 -0.55670372 -1.1640956
-7.7695172 -0.55670372 -1.1640956
-8.3699984 -0.55670372 -1.1640956