# vtk DataFile Version 4.0
hesp visualization file
ASCII
DATASET UNSTRUCTURED_GRID
POINTS 3000 double
-0.220682 -0.220682 -0.220682
1.4719359 -0.220682 -0.220682
3.221909 -0.220682 -0.220682
4.9718888 -0.220682 -0.220682
6.7218755 -0.220682 -0.220682
8.4718214 -0.220682 -0.220682
10.221835 -0.220682 -0.220682
11.971781 -0.220682 -0.220682
13.721795 -0.220682 -0.220682
15.471741 -0.220682 -0.220682
17.221755 -0.220682 -0.220682
18.9717 -0.220682 -0.220682
20.721714 -0.220682 -0.220682
22.47166 -0.220682 -0.220682
24.221674 -0.220682 -0.220682
25.97162 -0.220682 -0.220682
27.721634 -0.220682 -0.220682
29.47158 -0.220682 -0.220682
31.221593 -0.220682 -0.220682
32.966298 -0.220682 -0.220682
-0.220682 1.4719359 -0.220682
1.4719359 1.4719359 -0.220682
3.221909 1.4719359 -0.220682
4.9718888 1.4719359 -0.220682
6.7218755 1.4719359 -0.220682
8.4718214 1.4719359 -0.220682
10.221835 1.4719359 -0.220682
11.971781 1.4719359 -0.220682
13.721795 1.4719359 -0.220682
15.471741 1.4719359 -0.220682
17.221755 1.4719359 -0.220682
18.9717 1.4719359 -0.220682
20.721714 1.4719359 -0.220682
22.47166 1.4719359 -0.220682
24.221674 1.4719359 -0.220682
25.97162 1.4719359 -0.220682
27.721634 1.4719359 -0.220682
29.47158 1.4719359 -0.220682
31.221593 1.4719359 -0.220682
32.966298 1.4719359 -0.220682
-0.220682 3.221909 -0.220682
1.4719359 3.221909 -0.220682
3.221909 3.221909 -0.220682
4.9718888 3.221909 -0.220682
6.7218755 3.221909 -0.220682
8.4718214 3.221909 -0.220682
10.221835 3.221909 -0.220682
11.971781 3.221909 -0.220682
13.721795 3.221909 -0.220682
15.471741 3.221909 -0.220682
17.221755 3.221909 -0.220682
18.9717 3.221909 -0.220682
20.721714 3.221909 -0.220682
22.47166 3.221909 -0.220682
24.221674 3.221909 -0.220682
25.97162 3.221909 -0.220682
27.721634 3.221909 -0.220682
29.47158 3.221909 -0.220682
31.221593 3.221909 -0.220682
32.966298 3.221909 -0.220682
-0.220682 4.9718888 -0.220682
1.4719359 4.9718888 -0.220682
3.221909 4.9718888 -0.220682
4.9718888 4.9718888 -0.220682
6.7218755 4.9718888 -0.220682
8.4718214 4.9718888 -0.220682
10.221835 4.9718888 -0.220682
11.971781 4.9718888 -0.220682
13.721795 4.9718888 -0.220682
15.471741 4.9718888 -0.220682
17.221755 4.9718888 -0.220682
18.9717 4.9718888 -0.220682
20.721714 4.9718888 -0.220682
22.47166 4.9718888 -0.220682
24.221674 4.9718888 -0.220682
25.97162 4.9718888 -0.220682
27.721634 4.9718888 -0.220682
29.47158 4.9718888 -0.220682
31.221593 4.9718888 -0.220682
32.966298 4.9718888 -0.220682
-0.220682 6.7218755 -0.220682
1.4719359 6.7218755 -0.220682
3.221909 6.7218755 -0.220682
4.9718888 6.7218755 -0.220682
6.7218755 6.7218755 -0.220682
8.4718214 6.7218755 -0.220682
10.221835 6.7218755 -0.220682
11.971781 6.7218755 -0.220682
13.721795 6.7218755 -0.220682
15.471741 6.7218755 -0.220682
17.221755 6.7218755 -0.220682
18.9717 6.7218755 -0.220682
20.721714 6.7218755 -0.220682
22.47166 6.7218755 -0.220682
24.221674 6.7218755 -0.220682
25.97162 6.7218755 -0.220682
27.721634 6.7218755 -0.220682
29.47158 6.7218755 -0.220682
31.221593 6.7218755 -0.220682
32.966298 6.7218755 -0.220682
-0.220682 8.4718214 -0.220682
1.4719359 8.4718214 -0.220682
3.221909 8.4718214 -0.220682
4.9718888 8.4718214 -0.220682
6.7218755 8.4718214 -0.220682
8.4718214 8.4718214 -0.220682
10.221835 8.4718214 -0.220682
11.971781 8.4718214 -0.220682
13.721795 8.4718214 -0.220682
15.471741 8.4718214 -0.220682
17.221755 8.4718214 -0.220682
18.9717 8.4718214 -0.220682
20.721714 8.4718214 -0.220682
22.47166 8.4718214 -0.220682
24.221674 8.4718214 -0.220682
25.97162 8.4718214 -0.220682
27.721634 8.4718214 -0.220682
29.47158 8.4718214 -0.220682
31.221593 8.4718214 -0.220682
32.966298 8.4718214 -0.220682
-0.220682 10.221835 -0.220682
1.4719359 10.221835 -0.220682
3.221909 10.221835 -0.220682
4.9718888 10.221835 -0.220682
6.7218755 10.221835 -0.220682
8.4718214 10.221835 -0.220682
10.221835 10.221835 -0.220682
11.971781 10.221835 -0.220682
13.721795 10.221835 -0.220682
15.471741 10.221835 -0.220682
17.221755 10.221835 -0.220682
18.9717 10.221835 -0.220682
20.721714 10.221835 -0.220682
22.47166 10.221835 -0.220682
24.221674 10.221835 -0.220682
25.97162 10.221835 -0.220682
27.721634 10.221835 -0.220682
29.47158 10.221835 -0.220682
31.221593 10.221835 -0.220682
32.966298 10.221835 -0.220682
-0.220682 11.971781 -0.220682
1.4719359 11.971781 -0.220682
3.221909 11.971781 -0.220682
4.9718888 11.971781 -0.220682
6.7218755 11.971781 -0.220682
8.4718214 11.971781 -0.220682
10.221835 11.971781 -0.220682
11.971781 11.971781 -0.220682
13.721795 11.971781 -0.220682
15.471741 11.971781 -0.220682
17.221755 11.971781 -0.220682
18.9717 11.971781 -0.220682
20.721714 11.971781 -0.220682
22.47166 11.971781 -0.220682
24.221674 11.971781 -0.220682
25.97162 11.971781 -0.220682
27.721634 11.971781 -0.220682
29.47158 11.971781 -0.220682
31.221593 11.971781 -0.220682
32.966298 11.971781 -0.220682
-0.220682 13.721795 -0.220682
1.4719359 13.721795 -0.220682
3.221909 13.721795 -0.220682
4.9718888 13.721795 -0.220682
6.7218755 13.721795 -0.220682
8.4718214 13.721795 -0.220682
10.221835 13.721795 -0.220682
11.971781 13.721795 -0.220682
13.721795 13.721795 -0.220682
15.471741 13.721795 -0.220682
17.221755 13.721795 -0.220682
18.9717 13.721795 -0.220682
20.721714 13.721795 -0.220682
22.47166 13.721795 -0.220682
24.221674 13.721795 -0.220682
25.97162 13.721795 -0.220682
27.721634 13.721795 -0.220682
29.47158 13.721795 -0.220682
31.221593 13.721795 -0.220682
32.966298 13.721795 -0.220682
-0.220682 15.471741 -0.220682
1.4719359 15.471741 -0.220682
3.221909 15.471741 -0.220682
4.9718888 15.471741 -0.220682
6.7218755 15.471741 -0.220682
8.4718214 15.471741 -0.220682
10.221835 15.471741 -0.220682
11.971781 15.471741 -0.220682
13.721795 15.471741 -0.220682
15.471741 15.471741 -0.220682
17.221755 15.471741 -0.220682
18.9717 15.471741 -0.220682
20.721714 15.471741 -0.220682
22.47166 15.471741 -0.220682
24.221674 15.471741 -0.220682
25.97162 15.471741 -0.220682
27.721634 15.471741 -0.220682
29.47158 15.471741 -0.220682
31.221593 15.471741 -0.220682
32.966298 15.471741 -0.220682
-0.220682 17.221755 -0.220682
1.4719359 17.221755 -0.220682
3.221909 17.221755 -0.220682
4.9718888 17.221755 -0.220682
6.7218755 17.221755 -0.220682
8.4718214 17.221755 -0.220682
10.221835 17.221755 -0.220682
11.971781 17.221755 -0.220682
13.721795 17.221755 -0.220682
15.471741 17.221755 -0.220682
17.221755 17.221755 -0.220682
18.9717 17.221755 -0.220682
20.721714 17.221755 -0.220682
22.47166 17.221755 -0.220682
24.221674 17.221755 -0.220682
25.97162 17.221755 -0.220682
27.721634 17.221755 -0.220682
29.47158 17.221755 -0.220682
31.221593 17.221755 -0.220682
32.966298 17.221755 -0.220682
-0.220682 18.9717 -0.220682
1.4719359 18.9717 -0.220682
3.221909 18.9717 -0.220682
4.9718888 18.9717 -0.220682
6.7218755 18.9717 -0.220682
8.4718214 18.9717 -0.220682
10.221835 18.9717 -0.220682
11.971781 18.9717 -0.220682
13.721795 18.9717 -0.220682
15.471741 18.9717 -0.220682
17.221755 18.9717 -0.220682
18.9717 18.9717 -0.220682
20.721714 18.9717 -0.220682
22.47166 18.9717 -0.220682
24.221674 18.9717 -0.220682
25.97162 18.9717 -0.220682
27.721634 18.9717 -0.220682
29.47158 18.9717 -0.220682
31.221593 18.9717 -0.220682
32.966298 18.9717 -0.220682
-0.220682 20.721714 -0.220682
1.4719359 20.721714 -0.220682
3.221909 20.721714 -0.220682
4.9718888 20.721714 -0.220682
6.7218755 20.721714 -0.220682
8.4718214 20.721714 -0.220682
10.221835 20.721714 -0.220682
11.971781 20.721714 -0.220682
13.721795 20.721714 -0.220682
15.471741 20.721714 -0.220682
17.221755 20.721714 -0.220682
18.9717 20.721714 -0.220682
20.721714 20.721714 -0.220682
22.47166 20.721714 -0.220682
24.221674 20.721714 -0.220682
25.97162 20.721714 -0.220682
27.721634 20.721714 -0.220682
29.47158 20.721714 -0.220682
31.221593 20.721714 -0.220682
32.966298 20.721714 -0.220682
-0.220682 22.47166 -0.220682
1.4719359 22.47166 -0.220682
3.221909 22.47166 -0.220682
4.9718888 22.47166 -0.220682
6.7218755 22.47166 -0.220682
8.4718214 22.47166 -0.220682
10.221835 22.47166 -0.220682
11.971781 22.47166 -0.220682
13.721795 22.47166 -0.220682
15.471741 22.47166 -0.220682
17.221755 22.47166 -0.220682
18.9717 22.47166 -0.220682
20.721714 22.47166 -0.220682
22.47166 22.47166 -0.220682
24.221674 22.47166 -0.220682
25.97162 22.47166 -0.220682
27.721634 22.47166 -0.220682
29.47158 22.47166 -0.220682
31.221593 22.47166 -0.220682
32.966298 22.47166 -0.220682
-0.220682 24.221674 -0.220682
1.4719359 24.221674 -0.220682
3.221909 24.221674 -0.220682
4.9718888 24.221674 -0.220682
6.7218755 24.221674 -0.220682
8.4718214 24.221674 -0.220682
10.221835 24.221674 -0.220682
11.971781 24.221674 -0.220682
13.721795 24.221674 -0.220682
15.471741 24.221674 -0.220682
17.221755 24.221674 -0.220682
18.9717 24.221674 -0.220682
20.721714 24.221674 -0.220682
22.47166 24.221674 -0.220682
24.221674 24.221674 -0.220682
25.97162 24.221674 -0.220682
27.721634 24.221674 -0.220682
29.47158 24.221674 -0.220682
31.221593 24.221674 -0.220682
32.966298 24.221674 -0.220682
-0.220682 25.97162 -0.220682
1.4719359 25.97162 -0.220682
3.221909 25.97162 -0.220682
4.9718888 25.97162 -0.220682
6.7218755 25.97162 -0.220682
8.4718214 25.97162 -0.220682
10.221835 25.97162 -0.220682
11.971781 25.97162 -0.220682
13.721795 25.97162 -0.220682
15.471741 25.97162 -0.220682
17.221755 25.97162 -0.220682
18.9717 25.97162 -0.220682
20.721714 25.97162 -0.220682
22.47166 25.97162 -0.220682
24.221674 25.97162 -0.220682
25.97162 25.97162 -0.220682
27.721634 25.97162 -0.220682
29.47158 25.97162 -0.220682
31.221593 25.97162 -0.220682
32.966298 25.97162 -0.220682
-0.220682 27.721634 -0.220682
1.4719359 27.721634 -0.220682
3.221909 27.721634 -0.220682
4.9718888 27.721634 -0.220682
6.7218755 27.721634 -0.220682
8.4718214 27.721634 -0.220682
10.221835 27.721634 -0.220682
11.971781 27.721634 -0.220682
13.721795 27.721634 -0.220682
15.471741 27.721634 -0.220682
17.221755 27.721634 -0.220682
18.9717 27.721634 -0.220682
20.721714 27.721634 -0.220682
22.47166 27.721634 -0.220682
24.221674 27.721634 -0.220682
25.97162 27.721634 -0.220682
[...]
POINT_DATA 3000
SCALARS m double
LOOKUP_TABLE default
1
1
1
1
1
1
1
1
1
1
1
1
1
1
1
1
1
1
1
1
1
1
1
1
1
1
1
1
1
1
1
1
1
1
1
1
1
1
1
1
1
1
1
1
1
1
1
1
1
1
1
1
1
1
1
1
1
1
1
1
1
1
1
1
1
1
1
1
1
1
1
1
1
1
1
1
1
1
1
1
1
1
1
1
1
1
1
1
1
1
1
1
1
1
1
1
1
1
1
1
1
1
1
1
1
1
1
1
1
1
1
1
1
1
1
1
1
1
1
1
1
1
1
1
1
1
1
1
1
1
1
1
1
1
1
1
1
1
1
1
1
1
1
1
1
1
1
1
1
1
1
1
1
1
1
1
1
1
1
1
1
1
1
1
1
1
1
1
1
1
1
1
1
1
1
1
1
1
1
1
1
1
1
1
1
1
1
1
1
1
1
1
1
1
1
1
1
1
1
1
1
1
1
1
1
1
1
1
1
1
1
1
1
1
1
1
1
1
1
1
1
1
1
1
1
1
1
1
1
1
1
1
1
1
1
1
1
1
1
1
1
1
1
1
1
1
1
1
1
1
1
1
1
1
1
1
1
1
1
1
1
1
1
1
1
1
1
1
1
1
1
1
1
1
1
1
1
1
1
1
1
1
1
1
1
1
1
1
1
1
1
1
1
1
1
1
1
1
1
1
1
1
1
1
1
1
1
1
1
1
1
1
1
1
1
1
1
1
1
1
1
1
1
1
1
1
1
1
1
1
1
1
1
1
1
1
1
1
1
1
1
1
1
1
1
1
1
1
1
1
1
1
1
1
1
1
1
1
1
1
1
1
1
1
1
1
1
1
1
1
1
1
1
1
1
1
1
1
1
1
1
1
1
1
1
1
1
1
1
1
1
1
1
1
1
1
1
1
1
1
1
1
1
1
1
1
1
1
1
1
1
1
1
1
1
1
1
1
1
1
1
1
1
1
1
1
1
1
1
1
1
1
1
1
1
1
1
1
1
1
1
1
1
1
1
1
1
1
1
1
1
1
1
1
1
1
1
1
1
1
1
1
1
1
1
1
1
1
1
1
1
1
1
1
1
1
1
1
1
1
1
1
1
1
1
1
1
1
1
1
1
1
1
1
1
1
1
1
1
1
1
1
1
1
1
1
1
1
1
1
1
1
1
1
1
1
1
1
1
1
1
1
1
1
1
1
1
1
1
1
1
1
1
1
1
1
1
1
1
1
1
1
1
1
1
1
1
1
1
1
1
1
1
1
1
1
1
1
1
1
1
1
1
1
1
1
1
1
1
1
1
1
1
1
1
1
1
1
1
1
1
1
1
1
1
1
1
1
1
1
1
1
1
1
1
1
1
1
1
1
1
1
1
1
1
1
1
1
1
1
1
1
1
1
1
1
1
1
1
1
1
1
1
1
1
1
1
1
1
1
1
1
1
1
1
1
1
1
1
1
1
1
1
1
1
1
1
1
1
1
1
1
1
1
1
1
1
1
1
1
1
1
1
1
1
1
1
1
1
1
1
1
1
1
1
1
1
1
1
1
1
1
1
1
1
1
1
1
1
1
1
1
1
1
1
1
1
1
1
1
1
1
1
1
1
1
1
1
1
1
1
1
1
1
1
1
1
1
1
1
1
1
1
1
1
1
1
1
1
1
1
1
1
1
1
1
1
1
1
1
1
1
1
1
1
1
1
1
1
1
1
1
1
1
1
1
1
1
1
1
1
1
1
1
1
1
1
1
1
1
1
1
1
1
1
1
1
1
1
1
1
1
1
1
1
1
1
1
1
1
1
1
1
1
1
1
1
1
1
1
1
1
1
1
1
1
1
1
1
1
1
1
1
1
1
1
1
1
1
1
1
1
1
1
1
1
1
1
1
1
1
1
1
1
1
1
1
1
1
1
1
1
1
1
1
1
1
1
1
1
1
1
1
1
1
1
1
1
1
1
1
1
1
1
1
1
1
1
1
1
1
1
1
1
1
1
1
1
1
1
1
1
1
1
1
1
1
1
1
1
1
1
1
1
1
1
1
1
1
1
1
1
1
1
1
1
1
1
1
1
1
1
1
1
1
1
1
1
1
1
1
1
1
1
1
1
1
1
1
1
1
1
1
1
1
1
1
1
1
1
1
1
1
1
1
1
1
1
1
1
1
1
1
1
1
1
1
1
1
1
1
1
1
1
1
1
1
1
1
1
1
1
1
1
1
1
1
1
1
1
1
1
1
1
1
1
1
1
1
1
1
1
1
1
1
1
1
1
1
1
1
1
1
1
1
1
1
1
1
1
1
1
1
1
1
1
1
1
1
1
1
1
1
1
1
1
1
1
1
1
1
1
1
1
1
1
1
1
1
1
1
1
1
1
1
1
1
1
1
1
1
1
1
1
1
1
1
1
1
1
1
1
1
1
1
1
1
1
1
1
1
1
1
1
1
1
1
1
1
1
1
1
1
1
1
1
1
1
1
1
1
1
1
1
1
1
1
1
1
1
1
1
1
1
1
1
1
1
1
1
1
1
1
1
1
1
1
1
1
1
1
1
1
1
1
1
1
1
1
1
1
1
1
1
1
1
1
1
1
1
1
1
1
1
1
1
1
1
1
1
1
1
1
1
1
1
1
1
1
1
1
1
1
1
1
1
1
1
1
1
1
1
1
1
1
1
1
1
1
1
1
1
1
1
1
1
1
1
1
1
1
1
1
1
1
1
1
1
1
1
1
1
1
1
1
1
1
1
1
1
1
1
1
1
1
1
1
1
1
1
1
1
1
1
1
1
1
1
1
1
1
1
1
1
1
1
1
1
1
1
1
1
1
1
1
1
1
1
1
1
1
1
1
1
1
1
1
1
1
1
1
1
1
1
1
1
1
1
1
1
1
1
1
1
1
1
1
1
1
1
1
1
1
1
1
1
1
1
1
1
1
1
1
1
1
1
1
1
1
1
1
1
1
1
1
1
1
1
1
1
1
1
1
1
1
1
1
1
1
1
1
1
1
1
1
1
1
1
1
1
1
1
1
1
1
1
1
1
1
1
1
1
1
1
1
1
1
1
1
1
1
1
1
1
1
1
1
1
1
1
1
1
1
1
1
1
1
1
1
1
1
1
1
1
1
1
1
1
1
1
1
1
1
1
1
1
1
1
1
1
1
1
1
1
1
1
1
1
1
1
1
1
1
1
1
1
1
1
1
1
1
1
1
1
1
1
1
1
1
1
1
1
1
1
1
1
1
1
1
1
1
1
1
1
1
1
1
1
1
1
1
1
1
1
1
1
1
1
1
1
1
1
1
1
1
1
1
1
1
1
1
1
1
1
1
1
1
1
1
1
1
1
1
1
1
1
1
1
1
1
1
1
1
1
1
1
1
1
1
1
1
1
1
1
1
1
1
1
1
1
1
1
1
1
1
1
1
1
1
1
1
1
1
1
1
1
1
1
1
1
1
1
1
1
1
1
1
1
1
1
1
1
1
1
1
1
1
1
1
1
1
1
1
1
1
1
1
1
1
1
1
1
1
1
1
1
1
1
1
1
1
1
1
1
1
1
1
1
1
1
1
1
1
1
1
1
1
1
1
1
1
1
1
1
1
1
1
1
1
1
1
1
1
1
1
1
1
1
1
1
1
1
1
1
1
1
1
1
1
1
1
1
1
1
1
1
1
1
1
1
1
1
1
1
1
1
1
1
1
1
1
1
1
1
1
1
1
1
1
1
1
1
1
1
1
1
1
1
1
1
1
1
1
1
1
1
1
1
1
1
1
1
1
1
1
1
1
1
1
1
1
1
1
1
1
1
1
1
1
1
1
1
1
1
1
1
1
1
1
1
1
1
1
1
1
1
1
1
1
1
1
1
1
1
1
1
1
1
1
1
1
1
1
1
1
1
1
1
1
1
1
1
1
1
1
1
1
1
1
1
1
1
1
1
1
1
1
1
1
1
1
1
1
1
1
1
1
1
1
1
1
1
1
1
1
1
1
1
1
1
1
1
1
1
1
1
1
1
1
1
1
1
1
1
1
1
1
1
1
1
1
1
1
1
1
1
1
1
1
1
1
1
1
1
1
1
1
1
1
1
1
1
1
1
1
1
1
1
1
1
1
1
1
1
1
1
1
1
1
1
1
1
1
1
1
1
1
1
1
1
1
1
1
1
1
1
1
1
1
1
1
1
1
1
1
1
1
1
1
1
1
1
1
1
1
1
1
1
1
1
1
1
1
1
1
1
1
1
1
1
1
1
1
1
1
1
1
1
1
1
1
1
1
1
1
1
1
1
1
1
1
1
1
1
1
1
1
1
1
1
1
1
1
1
1
1
1
1
1
1
1
1
1
1
1
1
1
1
1
1
1
1
1
1
1
1
1
1
1
1
1
1
1
1
1
1
1
1
1
1
1
1
1
1
1
1
1
1
1
1
1
1
1
1
1
1
1
1
1
1
1
1
1
1
1
1
1
1
1
1
1
1
1
1
1
1
1
1
1
1
1
1
1
1
1
1
1
1
1
1
1
1
1
1
1
1
1
1
1
1
1
1
1
1
1
1
1
1
1
1
1
1
1
1
1
1
1
1
1
1
1
1
1
1
1
1
1
1
1
1
1
1
1
1
1
1
1
1
1
1
1
1
1
1
1
1
1
1
1
1
1
1
1
1
1
1
1
1
1
1
1
1
1
1
1
1
1
1
1
1
1
1
1
1
1
1
1
1
1
1
1
1
1
1
1
1
1
1
1
1
1
1
1
1
1
1
1
1
1
1
1
1
1
1
1
1
1
1
1
1
1
1
1
1
1
1
1
1
1
1
1
1
1
1
1
1
1
1
1
1
1
1
1
1
1
1
1
1
1
1
1
1
1
1
1
1
1
1
1
1
1
1
1
1
1
1
1
1
1
1
1
1
1
1
1
1
1
1
1
1
1
1
1
1
1
1
1
1
1
1
1
1
1
1
1
1
1
1
1
1
1
1
1
1
1
1
1
1
1
1
1
1
1
1
1
1
1
1
1
1
1
1
1
1
1
1
1
1
1
1
1
1
1
1
1
1
1
1
1
1
1
1
1
1
1
1
1
1
1
1
1
1
1
1
1
1
1
1
1
1
1
1
1
1
1
1
1
1
1
1
1
1
1
1
1
1
1
1
1
1
1
1
1
1
1
1
1
1
1
1
1
1
1
1
1
1
1
1
1
1
1
1
1
1
1
1
1
1
1
1
1
1
1
1
1
1
1
1
1
1
1
1
1
1
1
1
1
1
1
1
1
1
1
1
1
1
1
1
1
1
1
1
1
1
1
1
1
1
1
1
1
1
1
1
1
1
1
1
1
1
1
1
1
1
1
1
1
1
1
1
1
1
1
1
1
1
1
1
1
1
1
1
1
1
1
1
1
1
1
1
1
1
1
1
1
1
1
1
1
1
1
1
1
1
1
1
1
1
1
1
1
1
1
1
1
1
1
1
1
1
1
1
1
1
1
1
1
1
1
1
1
1
1
1
1
1
1
1
1
1
1
1
1
1
1
1
1
1
1
1
1
1
1
1
1
1
1
1
1
1
1
1
1
1
1
1
1
1
1
1
1
1
1
1
1
1
1
1
1
1
1
1
1
1
1
1
1
1
1
1
1
1
1
1
1
1
1
1
1
1
1
1
1
1
1
1
1
1
1
1
1
1
1
1
1
1
1
1
1
1
1
1
1
1
1
1
1
1
1
1
1
1
1
1
1
1
1
1
1
1
1
1
1
1
1
1
1
1
1
1
1
1
1
1
1
1
1
1
1
1
1
1
1
1
1
1
1
1
1
1
1
1
1
1
1
1
1
1
1
1
1
1
1
1
1
1
1
1
1
1
1
1
1
1
1
1
1
1
1
1
1
1
1
1
1
1
1
1
1
1
1
1
1
1
1
1
1
1
1
1
1
1
1
1
1
1
1
1
1
1
1
1
1
1
1
1
1
1
1
1
1
1
1
1
1
1
1
1
1
1
1
1
1
1
1
1
1
1
1
1
1
1
1
1
1
1
1
1
1
1
1
1
1
1
1
1
1
1
1
1
1
1
1
1
1
1
1
1
1
1
1
1
1
1
1
1
1
1
1
1
1
1
1
1
1
1
1
1
1
1
1
1
1
1
1
1
1
1
1
1
1
1
1
1
1
1
1
1
1
1
1
1
1
1
1
1
1
1
1
1
1
1
1
1
1
1
1
1
1
1
1
1
1
1
1
1
1
1
1
1
1
1
1
1
1
1
1
1
1
1
1
1
1
1
1
1
1
1
1
1
1
1
1
1
1
1
1
1
1
1
1
1
1
1
1
1
1
1
1
1
1
1
1
1
1
1
1
1
1
1
1
1
1
1
1
1
1
1
1
1
1
1
1
1
1
1
1
1
1
1
1
1
1
1
1
1
1
1
1
1
1
1
1
1
1
1
1
1
1
1
1
1
1
1
1
1
1
1
1
1
1
1
1
1
1
1
1
1
1
1
1
1
1
1
1
1
1
1
1
1
1
1
1
1
1
1
1
1
1
1
1
1
1
1
1
1
1
1
1
1
1
1
1
1
1
1
1
1
1
1
1
1
1
1
1
1
1
1
1
1
1
1
1
1
1
1
1
1
1
1
1
1
1
1
1
1
1
1
1
1
1
1
1
1
1
1
1
1
1
1
1
1
1
1
1
1
1
1
1
1
1
1
1
1
1
1
1
1
1
1
1
1
1
1
1
1
1
1
1
1
1
1
1
1
1
1
1
1
1
1
1
1
1
1
1
1
1
1
1
1
1
1
1
1
1
1
1
1
1
1
VECTORS v double
-1.1422963 -1.1422963 -1.1422963
-3.6723591 -1.1422963 -1.1422963
-5.5667198 -1.1422963 -1.1422963
-7.4610878 -1.1422963 -1.1422963
-9.3554632 -1.1422963 -1.1422963
-11.249794 -1.1422963 -1.1422963
-13.144199 -1.1422963 -1.1422963
-15.038531 -1.1422963 -1.1422963
-16.932935 -1.1422963 -1.1422963
-18.827267 -1.1422963 -1.1422963
-20.721671 -1.1422963 -1.1422963
-22.616003 -1.1422963 -1.1422963
-24.510407 -1.1422963 -1.1422963
-26.404739 -1.1422963 -1.1422963
-28.299143 -1.1422963 -1.1422963
-30.193475 -1.1422963 -1.1422963
-32.087879 -1.1422963 -1.1422963
-33.982211 -1.1422963 -1.1422963
-35.876615 -1.1422963 -1.1422963
-37.77574 -1.1422963 -1.1422963
-1.1422963 -3.6723591 -1.1422963
-3.6723591 -3.6723591 -1.1422963
-5.5667198 -3.6723591 -1.1422963
-7.4610878 -3.6723591 -1.1422963
-9.3554632 -3.6723591 -1.1422963
-11.249794 -3.6723591 -1.1422963
-13.144199 -3.6723591 -1.1422963
-15.038531 -3.6723591 -1.1422963
-16.932935 -3.6723591 -1.1422963
-18.827267 -3.6723591 -1.1422963
-20.721671 -3.6723591 -1.1422963
-22.616003 -3.6723591 -1.1422963
-24.510407 -3.6723591 -1.1422963
-26.404739 -3.6723591 -1.1422963
-28.299143 -3.6723591 -1.1422963
-30.193475 -3.6723591 -1.1422963
-32.087879 -3.6723591 -1.1422963
-33.982211 -3.6723591 -1.1422963
-35.876615 -3.6723591 -1.1422963
-37.77574 -3.6723591 -1.1422963
-1.1422963 -5.5667198 -1.1422963
-3.6723591 -5.5667198 -1.1422963
-5.5667198 -5.5667198 -1.1422963
-7.4610878 -5.5667198 -1.1422963
-9.3554632 -5.5667198 -1.1422963
-11.249794 -5.5667198 -1.1422963
-13.144199 -5.5667198 -1.1422963
-15.038531 -5.5667198 -1.1422963
-16.932935 -5.5667198 -1.1422963
-18.827267 -5.5667198 -1.1422963
-20.721671 -5.5667198 -1.1422963
-22.616003 -5.5667198 -1.1422963
-24.510407 -5.5667198 -1.1422963
-26.404739 -5.5667198 -1.1422963
-28.299143 -5.5667198 -1.1422963
-30.193475 -5.5667198 -1.1422963
-32.087879 -5.5667198 -1.1422963
-33.982211 -5.5667198 -1.1422963
-35.876615 -5.5667198 -1.1422963
-37.77574 -5.5667198 -1.1422963
-1.1422963 -7.4610878 -1.1422963
-3.6723591 -7.4610878 -1.1422963
-5.5667198 -7.4610878 -1.1422963
-7.4610878 -7.4610878 -1.1422963
-9.3554632 -7.4610878 -1.1422963
-11.249794 -7.4610878 -1.1422963
-13.144199 -7.4610878 -1.1422963
-15.038531 -7.4610878 -1.1422963
-16.932935 -7.4610878 -1.1422963
-18.827267 -7.4610878 -1.1422963
-20.721671 -7.4610878 -1.1422963
-22.616003 -7.4610878 -1.1422963
-24.510407 -7.4610878 -1.1422963
-26.404739 -7.4610878 -1.1422963
-28.299143 -7.4610878 -1.1422963
-30.193475 -7.4610878 -1.1422963
-32.087879 -7.4610878 -1.1422963
-33.982211 -7.4610878 -1.1422963
-35.876615 -7.4610878 -1.1422963
-37.77574 -7.4610878 -1.1422963
-1.1422963 -9.3554632 -1.1422963
-3.6723591 -9.3554632 -1.1422963
-5.5667198 -9.3554632 -1.1422963
-7.4610878 -9.3554632 -1.1422963
-9.3554632 -9.3554632 -1.1422963
-11.249794 -9.3554632 -1.1422963
-13.144199 -9.3554632 -1.1422963
-15.038531 -9.3554632 -1.1422963
-16.932935 -9.3554632 -1.1422963
-18.827267 -9.3554632 -1.1422963
-20.721671 -9.3554632 -1.1422963
-22.616003 -9.3554632 -1.1422963
-24.510407 -9.3554632 -1.1422963
-26.404739 -9.3554632 -1.1422963
-28.299143 -9.3554632 -1.1422963
-30.193475 -9.3554632 -1.1422963
-32.087879 -9.3554632 -1.1422963
-33.982211 -9.3554632 -1.1422963
-35.876615 -9.3554632 -1.1422963
-37.77574 -9.3554632 -1.1422963
-1.1422963 -11.249794 -1.1422963
-3.6723591 -11.249794 -1.1422963
-5.5667198 -11.249794 -1.1422963
-7.4610878 -11.249794 -1.1422963
-9.3554632 -11.249794 -1.1422963
-11.249794 -11.249794 -1.1422963
-13.144199 -11.249794 -1.1422963
-15.038531 -11.249794 -1.1422963
-16.932935 -11.249794 -1.1422963
-18.827267 -11.249794 -1.1422963
-20.721671 -11.249794 -1.1422963
-22.616003 -11.249794 -1.1422963
-24.510407 -11.249794 -1.1422963
-26.404739 -11.249794 -1.1422963
-28.299143 -11.249794 -1.1422963
-30.193475 -11.249794 -1.1422963
-32.087879 -11.249794 -1.1422963
-33.982211 -11.249794 -1.1422963
-35.876615 -11.249794 -1.1422963
-37.77574 -11.249794 -1.1422963
-1.1422963 -13.144199 -1.1422963
-3.6723591 -13.144199 -1.1422963
-5.5667198 -13.144199 -1.1422963
-7.4610878 -13.144199 -1.1422963
-9.3554632 -13.144199 -1.1422963
-11.249794 -13.144199 -1.1422963
-13.144199 -13.144199 -1.1422963
-15.038531 -13.144199 -1.1422963
-16.932935 -13.144199 -1.1422963
-18.827267 -13.144199 -1.1422963
-20.721671 -13.144199 -1.1422963
-22.616003 -13.144199 -1.1422963
-24.510407 -13.144199 -1.1422963
-26.404739 -13.144199 -1.1422963
-28.299143 -13.144199 -1.1422963
-30.193475 -13.144199 -1.1422963
-32.087879 -13.144199 -1.1422963
-33.982211 -13.144199 -1.1422963
-35.876615 -13.144199 -1.1422963
-37.77574 -13.144199 -1.1422963
-1.1422963 -15.038531 -1.1422963
-3.6723591 -15.038531 -1.1422963
-5.5667198 -15.038531 -1.1422963
-7.4610878 -15.038531 -1.1422963
-9.3554632 -15.038531 -1.1422963
-11.249794 -15.038531 -1.1422963
-13.144199 -15.038531 -1.1422963
-15.038531 -15.038531 -1.1422963
-16.932935 -15.038531 -1.1422963
-18.827267 -15.038531 -1.1422963
-20.721671 -15.038531 -1.1422963
-22.616003 -15.038531 -1.1422963
-24.510407 -15.038531 -1.1422963
-26.404739 -15.038531 -1.1422963
-28.299143 -15.038531 -1.1422963
-30.193475 -15.038531 -1.1422963
-32.087879 -15.038531 -1.1422963
-33.982211 -15.038531 -1.1422963
-35.876615 -15.038531 -1.1422963
-37.77574 -15.038531 -1.1422963
-1.1422963 -16.932935 -1.1422963
-3.6723591 -16.932935 -1.1422963
-5.5667198 -16.932935 -1.1422963
-7.4610878 -16.932935 -1.1422963
-9.3554632 -16.932935 -1.1422963
-11.249794 -16.932935 -1.1422963
-13.144199 -16.932935 -1.1422963
-15.038531 -16.932935 -1.1422963
-16.932935 -16.932935 -1.1422963
-18.827267 -16.932935 -1.1422963
-20.721671 -16.932935 -1.1422963
-22.616003 -16.932935 -1.1422963
-24.510407 -16.932935 -1.1422963
-26.404739 -16.932935 -1.1422963
-28.299143 -16.932935 -1.1422963
-30.193475 -16.932935 -1.1422963
-32.087879 -16.932935 -1.1422963
-33.982211 -16.932935 -1.1422963
-35.876615 -16.932935 -1.1422963
-37.77574 -16.932935 -1.1422963
-1.1422963 -18.827267 -1.1422963
-3.6723591 -18.827267 -1.1422963
-5.5667198 -18.827267 -1.1422963
-7.4610878 -18.827267 -1.1422963
-9.3554632 -18.827267 -1.1422963
-11.249794 -18.827267 -1.1422963
-13.144199 -18.827267 -1.1422963
-15.038531 -18.827267 -1.1422963
-16.932935 -18.827267 -1.1422963
-18.827267 -18.827267 -1.1422963
-20.721671 -18.827267 -1.1422963
-22.616003 -18.827267 -1.1422963
-24.510407 -18.827267 -1.1422963
-26.404739 -18.827267 -1.1422963
-28.299143 -18.827267 -1.1422963
-30.193475 -18.827267 -1.1422963
-32.087879 -18.827267 -1.1422963
-33.982211 -18.827267 -1.1422963
-35.876615 -18.827267 -1.1422963
-37.77574 -18.827267 -1.1422963
-1.1422963 -20.721671 -1.1422963
-3.6723591 -20.721671 -1.1422963
-5.5667198 -20.721671 -1.1422963
-7.4610878 -20.721671 -1.1422963
-9.3554632 -20.721671 -1.1422963
-11.249794 -20.721671 -1.1422963
-13.144199 -20.721671 -1.1422963
-15.038531 -20.721671 -1.1422963
-16.932935 -20.721671 -1.1422963
-18.827267 -20.721671 -1.1422963
-20.721671 -20.721671 -1.1422963
-22.616003 -20.721671 -1.1422963
-24.510407 -20.721671 -1.1422963
-26.404739 -20.721671 -1.1422963
-28.299143 -20.721671 -1.1422963
-30.193475 -20.721671 -1.1422963
-32.087879 -20.721671 -1.1422963
-33.982211 -20.721671 -1.1422963
-35.876615 -20.721671 -1.1422963
-37.77574 -20.721671 -1.1422963
-1.1422963 -22.616003 -1.1422963
-3.6723591 -22.616003 -1.1422963
-5.5667198 -22.616003 -1.1422963
-7.4610878 -22.616003 -1.1422963
-9.3554632 -22.616003 -1.1422963
-11.249794 -22.616003 -1.1422963
-13.144199 -22.616003 -1.1422963
-15.038531 -22.616003 -1.1422963
-16.932935 -22.616003 -1.1422963
-18.827267 -22.616003 -1.1422963
-20.721671 -22.616003 -1.1422963
-22.616003 -22.616003 -1.1422963
-24.510407 -22.616003 -1.1422963
-26.404739 -22.616003 -1.1422963
-28.299143 -22.616003 -1.1422963
-30.193475 -22.616003 -1.1422963
-32.087879 -22.616003 -1.1422963
-33.982211 -22.616003 -1.1422963
-35.876615 -22.616003 -1.1422963
-37.77574 -22.616003 -1.1422963
-1.1422963 -24.510407 -1.1422963
-3.6723591 -24.510407 -1.1422963
-5.5667198 -24.510407 -1.1422963
-7.4610878 -24.510407 -1.1422963
-9.3554632 -24.510407 -1.1422963
-11.249794 -24.510407 -1.1422963
-13.144199 -24.510407 -1.1422963
-15.038531 -24.510407 -1.1422963
-16.932935 -24.510407 -1.1422963
-18.827267 -24.510407 -1.1422963
-20.721671 -24.510407 -1.1422963
-22.616003 -24.510407 -1.1422963
-24.510407 -24.510407 -1.1422963
-26.404739 -24.510407 -1.1422963
-28.299143 -24.510407 -1.1422963
-30.193475 -24.510407 -1.1422963
-32.087879 -24.510407 -1.1422963
-33.982211 -24.510407 -1.1422963
-35.876615 -24.510407 -1.1422963
-37.77574 -24.510407 -1.1422963
-1.1422963 -26.404739 -1.1422963
-3.6723591 -26.404739 -1.1422963
-5.5667198 -26.404739 -1.1422963
-7.4610878 -26.404739 -1.1422963
-9.3554632 -26.404739 -1.1422963
-11.249794 -26.404739 -1.1422963
-13.144199 -26.404739 -1.1422963
-15.038531 -26.404739 -1.1422963
-16.932935 -26.404739 -1.1422963
-18.827267 -26.404739 -1.1422963
-20.721671 -26.404739 -1.1422963
-22.616003 -26.404739 -1.1422963
-24.510407 -26.404739 -1.1422963
-26.404739 -26.404739 -1.1422963
-28.299143 -26.404739 -1.1422963
-30.193475 -26.404739 -1.1422963
-32.087879 -26.404739 -1.1422963
-33.982211 -26.404739 -1.1422963
-35.876615 -26.404739 -1.1422963
-37.77574 -26.404739 -1.1422963
-1.1422963 -28.299143 -1.1422963
-3.6723591 -28.299143 -1.1422963
-5.5667198 -28.299143 -1.1422963
-7.4610878 -28.299143 -1.1422963
-9.3554632 -28.299143 -1.1422963
-11.249794 -28.299143 -1.1422963
-13.144199 -28.299143 -1.1422963
-15.038531 -28.299143 -1.1422963
-16.932935 -28.299143 -1.1422963
-18.827267 -28.299143 -1.1422963
-20.721671 -28.299143 -1.1422963
-22.616003 -28.299143 -1.1422963
-24.510407 -28.299143 -1.1422963
-26.404739 -28.299143 -1.1422963
-28.299143 -28.299143 -1.1422963
-30.193475 -28.299143 -1.1422963
-32.087879 -28.299143 -1.1422963
-33.982211 -28.299143 -1.1422963
-35.876615 -28.299143 -1.1422963
-37.77574 -28.299143 -1.1422963
-1.1422963 -30.193475 -1.1422963
-3.6723591 -30.193475 -1.1422963
-5.5667198 -30.193475 -1.1422963
-7.4610878 -30.193475 -1.1422963
-9.3554632 -30.193475 -1.1422963
-11.249794 -30.193475 -1.1422963
-13.144199 -30.193475 -1.1422963
-15.038531 -30.193475 -1.1422963
-16.932935 -30.193475 -1.1422963
-18.827267 -30.193475 -1.1422963
-20.721671 -30.193475 -1.1422963
-22.616003 -30.193475 -1.1422963
-24.510407 -30.193475 -1.1422963
-26.404739 -30.193475 -1.1422963
-28.299143 -30.193475 -1.1422963
-30.193475 -30.193475 -1.1422963
-32.087879 -30.193475 -1.1422963
-33.982211 -30.193475 -1.1422963
-35.876615 -30.193475 -1.1422963
-37.77574 -30.193475 -1.1422963
-1.1422963 -32.087879 -1.1422963
-3.6723591 -32.087879 -1.1422963
-5.5667198 -32.087879 -1.1422963
-7.4610878 -32.087879 -1.1422963
-9.3554632 -32.087879 -1.1422963
-11.249794 -32.087879 -1.1422963
-13.144199 -32.087879 -1.1422963
-15.038531 -32.087879 -1.1422963
-16.932935 -32.087879 -1.1422963
-18.827267 -32.087879 -1.1422963
-20.721671 -32.087879 -1.1422963
-22.616003 -32.087879 -1.1422963
-24.510407 -32.087879 -1.1422963
-26.404739 -32.087879 -1.1422963
-28.299143 -32.087879 -1.1422963
-30.193475 -32.087879 -1.1422963
-32.087879 -32.087879 -1.1422963
-33.982211 -32.087879 -1.1422963
-35.876615 -32.087879 -1.1422963
-37.77574 -32.087879 -1.1422963
-1.1422963 -33.982211 -1.1422963
-3.6723591 -33.982211 -1.1422963
-5.5667198 -33.982211 -1.1422963
-7.4610878 -33.982211 -1.1422963
-9.3554632 -33.982211 -1.1422963
-11.249794 -33.982211 -1.1422963
-13.144199 -33.982211 -1.1422963
-15.038531 -33.982211 -1.1422963
-16.932935 -33.982211 -1.1422963
-18.827267 -33.982211 -1.1422963
-20.721671 -33.982211 -1.1422963
-22.616003 -33.982211 -1.1422963
-24.510407 -33.982211 -1.1422963
-26.404739 -33.982211 -1.1422963
-28.299143 -33.982211 -1.1422963
-30.193475 -33.982211 -1.1422963
-32.087879 -33.982211 -1.1422963
-33.982211 -33.982211 -1.1422963
-35.876615 -33.982211 -1.1422963
-37.77574 -33.982211 -1.1422963
-1.1422963 -35.876615 -1.1422963
-3.6723591 -35.876615 -1.1422963
-5.5667198 -35.876615 -1.1422963
-7.4610878 -35.876615 -1.1422963
-9.3554632 -35.876615 -1.1422963
-11.249794 -35.876615 -1.1422963
-13.144199 -35.876615 -1.1422963
-15.038531 -35.876615 -1.1422963
-16.932935 -35.876615 -1.1422963
-18.827267 -35.876615 -1.1422963
-20.721671 -35.876615 -1.1422963
-22.616003 -35.876615 -1.1422963
-24.510407 -35.876615 -1.1422963
-26.404739 -35.876615 -1.1422963
-28.299143 -35.876615 -1.1422963
-30.193475 -35.876615 -1.1422963
-32.087879 -35.876615 -1.1422963
-33.982211 -35.876615 -1.1422963
-35.876615 -35.876615 -1.1422963
-37.77574 -35.876615 -1.1422963
-1.1422963 -37.77574 -1.1422963
-3.6723591 -37.77574 -1.1422963
-5.5667198 -37.77574 -1.1422963
-7.4610878 -37.77574 -1.1422963
-9.3554632 -37.77574 -1.1422963
-11.249794 -37.77574 -1.1422963
-13.144199 -37.77574 -1.1422963
-15.038531 -37.77574 -1.1422963
-16.932935 -37.77574 -1.1422963
-18.827267 -37.77574 -1.1422963
-20.721671 -37.77574 -1.1422963
-22.616003 -37.77574 -1.1422963
-24.510407 -37.77574 -1.1422963
-26.404739 -37.77574 -1.1422963
-28.299143 -37.77574 -1.1422963
-30.193475 -37.77574 -1.1422963
-32.087879 -37.77574 -1.1422963
-33.982211 -37.77574 -1.1422963
-35.876615 -37.77574 -1.1422963
-37.77574 -37.77574 -1.1422963
-1.1422963 -1.1422963 -3.6723591
-3.6723591 -1.1422963 -3.6723591
-5.5667198 -1.1422963 -3.6723591
-7.4610878 -1.1422963 -3.6723591
-9.3554632 -1.1422963 -3.6723591
-11.249794 -1.1422963 -3.6723591
-13.144199 -1.1422963 -3.6723591
-15.038531 -1.1422963 -3.6723591
-16.932935 -1.1422963 -3.6723591
-18.827267 -1.1422963 -3.6723591
-20.721671 -1.1422963 -3.6723591
-22.616003 -1.1422963 -3.6723591
-24.510407 -1.1422963 -3.6723591
-26.404739 -1.1422963 -3.6723591
-28.299143 -1.1422963 -3.6723591
-30.193475 -1.1422963 -3.6723591
-32.087879 -1.1422963 -3.6723591
-33.982211 -1.1422963 -3.6723591
-35.876615 -1.1422963 -3.6723591
-37.77574 -1.1422963 -3.6723591
-1.1422963 -3.6723591 -3.6723591
-3.6723591 -3.6723591 -3.6723591
-5.5667198 -3.6723591 -3.6723591