# vtk DataFile Version 4.0
hesp visualization file
ASCII
DATASET UNSTRUCTURED_GRID
POINTS 3000 double
0.17762848 0.17762848 0.17762848
2.4056901 0.17762848 0.17762848
4.6373337 0.17762848 0.17762848
6.8689859 0.17762848 0.17762848
9.1006468 0.17762848 0.17762848
11.332256 0.17762848 0.17762848
13.563951 0.17762848 0.17762848
15.79556 0.17762848 0.17762848
18.027256 0.17762848 0.17762848
20.258865 0.17762848 0.17762848
22.49056 0.17762848 0.17762848
24.722169 0.17762848 0.17762848
26.953865 0.17762848 0.17762848
29.185474 0.17762848 0.17762848
31.417169 0.17762848 0.17762848
33.648778 0.17762848 0.17762848
35.880474 0.17762848 0.17762848
38.112083 0.17762848 0.17762848
40.343778 0.17762848 0.17762848
42.571797 0.17762848 0.17762848
0.17762848 2.4056901 0.17762848
2.4056901 2.4056901 0.17762848
4.6373337 2.4056901 0.17762848
6.8689859 2.4056901 0.17762848
9.1006468 2.4056901 0.17762848
11.332256 2.4056901 0.17762848
13.563951 2.4056901 0.17762848
15.79556 2.4056901 0.17762848
18.027256 2.4056901 0.17762848
20.258865 2.4056901 0.17762848
22.49056 2.4056901 0.17762848
24.722169 2.4056901 0.17762848
26.953865 2.4056901 0.17762848
29.185474 2.4056901 0.17762848
31.417169 2.4056901 0.17762848
33.648778 2.4056901 0.17762848
35.880474 2.4056901 0.17762848
38.112083 2.4056901 0.17762848
40.343778 2.4056901 0.17762848
42.571797 2.4056901 0.17762848
0.17762848 4.6373337 0.17762848
2.4056901 4.6373337 0.17762848
4.6373337 4.6373337 0.17762848
6.8689859 4.6373337 0.17762848
9.1006468 4.6373337 0.17762848
11.332256 4.6373337 0.17762848
13.563951 4.6373337 0.17762848
15.79556 4.6373337 0.17762848
18.027256 4.6373337 0.17762848
20.258865 4.6373337 0.17762848
22.49056 4.6373337 0.17762848
24.722169 4.6373337 0.17762848
26.953865 4.6373337 0.17762848
29.185474 4.6373337 0.17762848
31.417169 4.6373337 0.17762848
33.648778 4.6373337 0.17762848
35.880474 4.6373337 0.17762848
38.112083 4.6373337 0.17762848
40.343778 4.6373337 0.17762848
42.571797 4.6373337 0.17762848
0.17762848 6.8689859 0.17762848
2.4056901 6.8689859 0.17762848
4.6373337 6.8689859 0.17762848
6.8689859 6.8689859 0.17762848
9.1006468 6.8689859 0.17762848
11.332256 6.8689859 0.17762848
13.563951 6.8689859 0.17762848
15.79556 6.8689859 0.17762848
18.027256 6.8689859 0.17762848
20.258865 6.8689859 0.17762848
22.49056 6.8689859 0.17762848
24.722169 6.8689859 0.17762848
26.953865 6.8689859 0.17762848
29.185474 6.8689859 0.17762848
31.417169 6.8689859 0.17762848
33.648778 6.8689859 0.17762848
35.880474 6.8689859 0.17762848
38.112083 6.8689859 0.17762848
40.343778 6.8689859 0.17762848
42.571797 6.8689859 0.17762848
0.17762848 9.1006468 0.17762848
2.4056901 9.1006468 0.17762848
4.6373337 9.1006468 0.17762848
6.8689859 9.1006468 0.17762848
9.1006468 9.1006468 0.17762848
11.332256 9.1006468 0.17762848
13.563951 9.1006468 0.17762848
15.79556 9.1006468 0.17762848
18.027256 9.1006468 0.17762848
20.258865 9.1006468 0.17762848
22.49056 9.1006468 0.17762848
24.722169 9.1006468 0.17762848
26.953865 9.1006468 0.17762848
29.185474 9.1006468 0.17762848
31.417169 9.1006468 0.17762848
33.648778 9.1006468 0.17762848
35.880474 9.1006468 0.17762848
38.112083 9.1006468 0.17762848
40.343778 9.1006468 0.17762848
42.571797 9.1006468 0.17762848
0.17762848 11.332256 0.17762848
2.4056901 11.332256 0.17762848
4.6373337 11.332256 0.17762848
6.8689859 11.332256 0.17762848
9.1006468 11.332256 0.17762848
11.332256 11.332256 0.17762848
13.563951 11.332256 0.17762848
15.79556 11.332256 0.17762848
18.027256 11.332256 0.17762848
20.258865 11.332256 0.17762848
22.49056 11.332256 0.17762848
24.722169 11.332256 0.17762848
26.953865 11.332256 0.17762848
29.185474 11.332256 0.17762848
31.417169 11.332256 0.17762848
33.648778 11.332256 0.17762848
35.880474 11.332256 0.17762848
38.112083 11.332256 0.17762848
40.343778 11.332256 0.17762848
42.571797 11.332256 0.17762848
0.17762848 13.563951 0.17762848
2.4056901 13.563951 0.17762848
4.6373337 13.563951 0.17762848
6.8689859 13.563951 0.17762848
9.1006468 13.563951 0.17762848
11.332256 13.563951 0.17762848
13.563951 13.563951 0.17762848
15.79556 13.563951 0.17762848
18.027256 13.563951 0.17762848
20.258865 13.563951 0.17762848
22.49056 13.563951 0.17762848
24.722169 13.563951 0.17762848
26.953865 13.563951 0.17762848
29.185474 13.563951 0.17762848
31.417169 13.563951 0.17762848
33.648778 13.563951 0.17762848
35.880474 13.563951 0.17762848
38.112083 13.563951 0.17762848
40.343778 13.563951 0.17762848
42.571797 13.563951 0.17762848
0.17762848 15.79556 0.17762848
2.4056901 15.79556 0.17762848
4.6373337 15.79556 0.17762848
6.8689859 15.79556 0.17762848
9.1006468 15.79556 0.17762848
11.332256 15.79556 0.17762848
13.563951 15.79556 0.17762848
15.79556 15.79556 0.17762848
18.027256 15.79556 0.17762848
20.258865 15.79556 0.17762848
22.49056 15.79556 0.17762848
24.722169 15.79556 0.17762848
26.953865 15.79556 0.17762848
29.185474 15.79556 0.17762848
31.417169 15.79556 0.17762848
33.648778 15.79556 0.17762848
35.880474 15.79556 0.17762848
38.112083 15.79556 0.17762848
40.343778 15.79556 0.17762848
42.571797 15.79556 0.17762848
0.17762848 18.027256 0.17762848
2.4056901 18.027256 0.17762848
4.6373337 18.027256 0.17762848
6.8689859 18.027256 0.17762848
9.1006468 18.027256 0.17762848
11.332256 18.027256 0.17762848
13.563951 18.027256 0.17762848
15.79556 18.027256 0.17762848
18.027256 18.027256 0.17762848
20.258865 18.027256 0.17762848
22.49056 18.027256 0.17762848
24.722169 18.027256 0.17762848
26.953865 18.027256 0.17762848
29.185474 18.027256 0.17762848
31.417169 18.027256 0.17762848
33.648778 18.027256 0.17762848
35.880474 18.027256 0.17762848
38.112083 18.027256 0.17762848
40.343778 18.027256 0.17762848
42.571797 18.027256 0.17762848
0.17762848 20.258865 0.17762848
2.4056901 20.258865 0.17762848
4.6373337 20.258865 0.17762848
6.8689859 20.258865 0.17762848
9.1006468 20.258865 0.17762848
11.332256 20.258865 0.17762848
13.563951 20.258865 0.17762848
15.79556 20.258865 0.17762848
18.027256 20.258865 0.17762848
20.258865 20.258865 0.17762848
22.49056 20.258865 0.17762848
24.722169 20.258865 0.17762848
26.953865 20.258865 0.17762848
29.185474 20.258865 0.17762848
31.417169 20.258865 0.17762848
33.648778 20.258865 0.17762848
35.880474 20.258865 0.17762848
38.112083 20.258865 0.17762848
40.343778 20.258865 0.17762848
42.571797 20.258865 0.17762848
0.17762848 22.49056 0.17762848
2.4056901 22.49056 0.17762848
4.6373337 22.49056 0.17762848
6.8689859 22.49056 0.17762848
9.1006468 22.49056 0.17762848
11.332256 22.49056 0.17762848
13.563951 22.49056 0.17762848
15.79556 22.49056 0.17762848
18.027256 22.49056 0.17762848
20.258865 22.49056 0.17762848
22.49056 22.49056 0.17762848
24.722169 22.49056 0.17762848
26.953865 22.49056 0.17762848
29.185474 22.49056 0.17762848
31.417169 22.49056 0.17762848
33.648778 22.49056 0.17762848
35.880474 22.49056 0.17762848
38.112083 22.49056 0.17762848
40.343778 22.49056 0.17762848
42.571797 22.49056 0.17762848
0.17762848 24.722169 0.17762848
2.4056901 24.722169 0.17762848
4.6373337 24.722169 0.17762848
6.8689859 24.722169 0.17762848
9.1006468 24.722169 0.17762848
11.332256 24.722169 0.17762848
13.563951 24.722169 0.17762848
15.79556 24.722169 0.17762848
18.027256 24.722169 0.17762848
20.258865 24.722169 0.17762848
22.49056 24.722169 0.17762848
24.722169 24.722169 0.17762848
26.953865 24.722169 0.17762848
29.185474 24.722169 0.17762848
31.417169 24.722169 0.17762848
33.648778 24.722169 0.17762848
35.880474 24.722169 0.17762848
38.112083 24.722169 0.17762848
40.343778 24.722169 0.17762848
42.571797 24.722169 0.17762848
0.17762848 26.953865 0.17762848
2.4056901 26.953865 0.17762848
4.6373337 26.953865 0.17762848
6.8689859 26.953865 0.17762848
9.1006468 26.953865 0.17762848
11.332256 26.953865 0.17762848
13.563951 26.953865 0.17762848
15.79556 26.953865 0.17762848
18.027256 26.953865 0.17762848
20.258865 26.953865 0.17762848
22.49056 26.953865 0.17762848
24.722169 26.953865 0.17762848
26.953865 26.953865 0.17762848
29.185474 26.953865 0.17762848
31.417169 26.953865 0.17762848
33.648778 26.953865 0.17762848
35.880474 26.953865 0.17762848
38.112083 26.953865 0.17762848
40.343778 26.953865 0.17762848
42.571797 26.953865 0.17762848
0.17762848 29.185474 0.17762848
2.4056901 29.185474 0.17762848
4.6373337 29.185474 0.17762848
6.8689859 29.185474 0.17762848
9.1006468 29.185474 0.17762848
11.332256 29.185474 0.17762848
13.563951 29.185474 0.17762848
15.79556 29.185474 0.17762848
18.027256 29.185474 0.17762848
20.258865 29.185474 0.17762848
22.49056 29.185474 0.17762848
24.722169 29.185474 0.17762848
26.953865 29.185474 0.17762848
29.185474 29.185474 0.17762848
31.417169 29.185474 0.17762848
33.648778 29.185474 0.17762848
35.880474 29.185474 0.17762848
38.112083 29.185474 0.17762848
40.343778 29.185474 0.17762848
42.571797 29.185474 0.17762848
0.17762848 31.417169 0.17762848
2.4056901 31.417169 0.17762848
4.6373337 31.417169 0.17762848
6.8689859 31.417169 0.17762848
9.1006468 31.417169 0.17762848
11.332256 31.417169 0.17762848
13.563951 31.417169 0.17762848
15.79556 31.417169 0.17762848
18.027256 31.417169 0.17762848
20.258865 31.417169 0.17762848
22.49056 31.417169 0.17762848
24.722169 31.417169 0.17762848
26.953865 31.417169 0.17762848
29.185474 31.417169 0.17762848
31.417169 31.417169 0.17762848
33.648778 31.417169 0.17762848
35.880474 31.417169 0.17762848
38.112083 31.417169 0.17762848
40.343778 31.417169 0.17762848
42.571797 31.417169 0.17762848
0.17762848 33.648778 0.17762848
2.4056901 33.648778 0.17762848
4.6373337 33.648778 0.17762848
6.8689859 33.648778 0.17762848
9.1006468 33.648778 0.17762848
11.332256 33.648778 0.17762848
13.563951 33.648778 0.17762848
15.79556 33.648778 0.17762848
18.027256 33.648778 0.17762848
20.258865 33.648778 0.17762848
22.49056 33.648778 0.17762848
24.722169 33.648778 0.17762848
26.953865 33.648778 0.17762848
29.185474 33.648778 0.17762848
31.417169 33.648778 0.17762848
33.648778 33.648778 0.17762848
35.880474 33.648778 0.17762848
38.112083 33.648778 0.17762848
40.343778 33.648778 0.17762848
42.571797 33.648778 0.17762848
[...]
POINT_DATA 3000
SCALARS m double
LOOKUP_TABLE default
1
1
1
1
1
1
1
1
1
1
1
1
1
1
1
1
1
1
1
1
1
1
1
1
1
1
1
1
1
1
1
1
1
1
1
1
1
1
1
1
1
1
1
1
1
1
1
1
1
1
1
1
1
1
1
1
1
1
1
1
1
1
1
1
1
1
1
1
1
1
1
1
1
1
1
1
1
1
1
1
1
1
1
1
1
1
1
1
1
1
1
1
1
1
1
1
1
1
1
1
1
1
1
1
1
1
1
1
1
1
1
1
1
1
1
1
1
1
1
1
1
1
1
1
1
1
1
1
1
1
1
1
1
1
1
1
1
1
1
1
1
1
1
1
1
1
1
1
1
1
1
1
1
1
1
1
1
1
1
1
1
1
1
1
1
1
1
1
1
1
1
1
1
1
1
1
1
1
1
1
1
1
1
1
1
1
1
1
1
1
1
1
1
1
1
1
1
1
1
1
1
1
1
1
1
1
1
1
1
1
1
1
1
1
1
1
1
1
1
1
1
1
1
1
1
1
1
1
1
1
1
1
1
1
1
1
1
1
1
1
1
1
1
1
1
1
1
1
1
1
1
1
1
1
1
1
1
1
1
1
1
1
1
1
1
1
1
1
1
1
1
1
1
1
1
1
1
1
1
1
1
1
1
1
1
1
1
1
1
1
1
1
1
1
1
1
1
1
1
1
1
1
1
1
1
1
1
1
1
1
1
1
1
1
1
1
1
1
1
1
1
1
1
1
1
1
1
1
1
1
1
1
1
1
1
1
1
1
1
1
1
1
1
1
1
1
1
1
1
1
1
1
1
1
1
1
1
1
1
1
1
1
1
1
1
1
1
1
1
1
1
1
1
1
1
1
1
1
1
1
1
1
1
1
1
1
1
1
1
1
1
1
1
1
1
1
1
1
1
1
1
1
1
1
1
1
1
1
1
1
1
1
1
1
1
1
1
1
1
1
1
1
1
1
1
1
1
1
1
1
1
1
1
1
1
1
1
1
1
1
1
1
1
1
1
1
1
1
1
1
1
1
1
1
1
1
1
1
1
1
1
1
1
1
1
1
1
1
1
1
1
1
1
1
1
1
1
1
1
1
1
1
1
1
1
1
1
1
1
1
1
1
1
1
1
1
1
1
1
1
1
1
1
1
1
1
1
1
1
1
1
1
1
1
1
1
1
1
1
1
1
1
1
1
1
1
1
1
1
1
1
1
1
1
1
1
1
1
1
1
1
1
1
1
1
1
1
1
1
1
1
1
1
1
1
1
1
1
1
1
1
1
1
1
1
1
1
1
1
1
1
1
1
1
1
1
1
1
1
1
1
1
1
1
1
1
1
1
1
1
1
1
1
1
1
1
1
1
1
1
1
1
1
1
1
1
1
1
1
1
1
1
1
1
1
1
1
1
1
1
1
1
1
1
1
1
1
1
1
1
1
1
1
1
1
1
1
1
1
1
1
1
1
1
1
1
1
1
1
1
1
1
1
1
1
1
1
1
1
1
1
1
1
1
1
1
1
1
1
1
1
1
1
1
1
1
1
1
1
1
1
1
1
1
1
1
1
1
1
1
1
1
1
1
1
1
1
1
1
1
1
1
1
1
1
1
1
1
1
1
1
1
1
1
1
1
1
1
1
1
1
1
1
1
1
1
1
1
1
1
1
1
1
1
1
1
1
1
1
1
1
1
1
1
1
1
1
1
1
1
1
1
1
1
1
1
1
1
1
1
1
1
1
1
1
1
1
1
1
1
1
1
1
1
1
1
1
1
1
1
1
1
1
1
1
1
1
1
1
1
1
1
1
1
1
1
1
1
1
1
1
1
1
1
1
1
1
1
1
1
1
1
1
1
1
1
1
1
1
1
1
1
1
1
1
1
1
1
1
1
1
1
1
1
1
1
1
1
1
1
1
1
1
1
1
1
1
1
1
1
1
1
1
1
1
1
1
1
1
1
1
1
1
1
1
1
1
1
1
1
1
1
1
1
1
1
1
1
1
1
1
1
1
1
1
1
1
1
1
1
1
1
1
1
1
1
1
1
1
1
1
1
1
1
1
1
1
1
1
1
1
1
1
1
1
1
1
1
1
1
1
1
1
1
1
1
1
1
1
1
1
1
1
1
1
1
1
1
1
1
1
1
1
1
1
1
1
1
1
1
1
1
1
1
1
1
1
1
1
1
1
1
1
1
1
1
1
1
1
1
1
1
1
1
1
1
1
1
1
1
1
1
1
1
1
1
1
1
1
1
1
1
1
1
1
1
1
1
1
1
1
1
1
1
1
1
1
1
1
1
1
1
1
1
1
1
1
1
1
1
1
1
1
1
1
1
1
1
1
1
1
1
1
1
1
1
1
1
1
1
1
1
1
1
1
1
1
1
1
1
1
1
1
1
1
1
1
1
1
1
1
1
1
1
1
1
1
1
1
1
1
1
1
1
1
1
1
1
1
1
1
1
1
1
1
1
1
1
1
1
1
1
1
1
1
1
1
1
1
1
1
1
1
1
1
1
1
1
1
1
1
1
1
1
1
1
1
1
1
1
1
1
1
1
1
1
1
1
1
1
1
1
1
1
1
1
1
1
1
1
1
1
1
1
1
1
1
1
1
1
1
1
1
1
1
1
1
1
1
1
1
1
1
1
1
1
1
1
1
1
1
1
1
1
1
1
1
1
1
1
1
1
1
1
1
1
1
1
1
1
1
1
1
1
1
1
1
1
1
1
1
1
1
1
1
1
1
1
1
1
1
1
1
1
1
1
1
1
1
1
1
1
1
1
1
1
1
1
1
1
1
1
1
1
1
1
1
1
1
1
1
1
1
1
1
1
1
1
1
1
1
1
1
1
1
1
1
1
1
1
1
1
1
1
1
1
1
1
1
1
1
1
1
1
1
1
1
1
1
1
1
1
1
1
1
1
1
1
1
1
1
1
1
1
1
1
1
1
1
1
1
1
1
1
1
1
1
1
1
1
1
1
1
1
1
1
1
1
1
1
1
1
1
1
1
1
1
1
1
1
1
1
1
1
1
1
1
1
1
1
1
1
1
1
1
1
1
1
1
1
1
1
1
1
1
1
1
1
1
1
1
1
1
1
1
1
1
1
1
1
1
1
1
1
1
1
1
1
1
1
1
1
1
1
1
1
1
1
1
1
1
1
1
1
1
1
1
1
1
1
1
1
1
1
1
1
1
1
1
1
1
1
1
1
1
1
1
1
1
1
1
1
1
1
1
1
1
1
1
1
1
1
1
1
1
1
1
1
1
1
1
1
1
1
1
1
1
1
1
1
1
1
1
1
1
1
1
1
1
1
1
1
1
1
1
1
1
1
1
1
1
1
1
1
1
1
1
1
1
1
1
1
1
1
1
1
1
1
1
1
1
1
1
1
1
1
1
1
1
1
1
1
1
1
1
1
1
1
1
1
1
1
1
1
1
1
1
1
1
1
1
1
1
1
1
1
1
1
1
1
1
1
1
1
1
1
1
1
1
1
1
1
1
1
1
1
1
1
1
1
1
1
1
1
1
1
1
1
1
1
1
1
1
1
1
1
1
1
1
1
1
1
1
1
1
1
1
1
1
1
1
1
1
1
1
1
1
1
1
1
1
1
1
1
1
1
1
1
1
1
1
1
1
1
1
1
1
1
1
1
1
1
1
1
1
1
1
1
1
1
1
1
1
1
1
1
1
1
1
1
1
1
1
1
1
1
1
1
1
1
1
1
1
1
1
1
1
1
1
1
1
1
1
1
1
1
1
1
1
1
1
1
1
1
1
1
1
1
1
1
1
1
1
1
1
1
1
1
1
1
1
1
1
1
1
1
1
1
1
1
1
1
1
1
1
1
1
1
1
1
1
1
1
1
1
1
1
1
1
1
1
1
1
1
1
1
1
1
1
1
1
1
1
1
1
1
1
1
1
1
1
1
1
1
1
1
1
1
1
1
1
1
1
1
1
1
1
1
1
1
1
1
1
1
1
1
1
1
1
1
1
1
1
1
1
1
1
1
1
1
1
1
1
1
1
1
1
1
1
1
1
1
1
1
1
1
1
1
1
1
1
1
1
1
1
1
1
1
1
1
1
1
1
1
1
1
1
1
1
1
1
1
1
1
1
1
1
1
1
1
1
1
1
1
1
1
1
1
1
1
1
1
1
1
1
1
1
1
1
1
1
1
1
1
1
1
1
1
1
1
1
1
1
1
1
1
1
1
1
1
1
1
1
1
1
1
1
1
1
1
1
1
1
1
1
1
1
1
1
1
1
1
1
1
1
1
1
1
1
1
1
1
1
1
1
1
1
1
1
1
1
1
1
1
1
1
1
1
1
1
1
1
1
1
1
1
1
1
1
1
1
1
1
1
1
1
1
1
1
1
1
1
1
1
1
1
1
1
1
1
1
1
1
1
1
1
1
1
1
1
1
1
1
1
1
1
1
1
1
1
1
1
1
1
1
1
1
1
1
1
1
1
1
1
1
1
1
1
1
1
1
1
1
1
1
1
1
1
1
1
1
1
1
1
1
1
1
1
1
1
1
1
1
1
1
1
1
1
1
1
1
1
1
1
1
1
1
1
1
1
1
1
1
1
1
1
1
1
1
1
1
1
1
1
1
1
1
1
1
1
1
1
1
1
1
1
1
1
1
1
1
1
1
1
1
1
1
1
1
1
1
1
1
1
1
1
1
1
1
1
1
1
1
1
1
1
1
1
1
1
1
1
1
1
1
1
1
1
1
1
1
1
1
1
1
1
1
1
1
1
1
1
1
1
1
1
1
1
1
1
1
1
1
1
1
1
1
1
1
1
1
1
1
1
1
1
1
1
1
1
1
1
1
1
1
1
1
1
1
1
1
1
1
1
1
1
1
1
1
1
1
1
1
1
1
1
1
1
1
1
1
1
1
1
1
1
1
1
1
1
1
1
1
1
1
1
1
1
1
1
1
1
1
1
1
1
1
1
1
1
1
1
1
1
1
1
1
1
1
1
1
1
1
1
1
1
1
1
1
1
1
1
1
1
1
1
1
1
1
1
1
1
1
1
1
1
1
1
1
1
1
1
1
1
1
1
1
1
1
1
1
1
1
1
1
1
1
1
1
1
1
1
1
1
1
1
1
1
1
1
1
1
1
1
1
1
1
1
1
1
1
1
1
1
1
1
1
1
1
1
1
1
1
1
1
1
1
1
1
1
1
1
1
1
1
1
1
1
1
1
1
1
1
1
1
1
1
1
1
1
1
1
1
1
1
1
1
1
1
1
1
1
1
1
1
1
1
1
1
1
1
1
1
1
1
1
1
1
1
1
1
1
1
1
1
1
1
1
1
1
1
1
1
1
1
1
1
1
1
1
1
1
1
1
1
1
1
1
1
1
1
1
1
1
1
1
1
1
1
1
1
1
1
1
1
1
1
1
1
1
1
1
1
1
1
1
1
1
1
1
1
1
1
1
1
1
1
1
1
1
1
1
1
1
1
1
1
1
1
1
1
1
1
1
1
1
1
1
1
1
1
1
1
1
1
1
1
1
1
1
1
1
1
1
1
1
1
1
1
1
1
1
1
1
1
1
1
1
1
1
1
1
1
1
1
1
1
1
1
1
1
1
1
1
1
1
1
1
1
1
1
1
1
1
1
1
1
1
1
1
1
1
1
1
1
1
1
1
1
1
1
1
1
1
1
1
1
1
1
1
1
1
1
1
1
1
1
1
1
1
1
1
1
1
1
1
1
1
1
1
1
1
1
1
1
1
1
1
1
1
1
1
1
1
1
1
1
1
1
1
1
1
1
1
1
1
1
1
1
1
1
1
1
1
1
1
1
1
1
1
1
1
1
1
1
1
1
1
1
1
1
1
1
1
1
1
1
1
1
1
1
1
1
1
1
1
1
1
1
1
1
1
1
1
1
1
1
1
1
1
1
1
1
1
1
1
1
1
1
1
1
1
1
1
1
1
1
1
1
1
1
1
1
1
1
1
1
1
1
1
1
1
1
1
1
1
1
1
1
1
1
1
1
1
1
1
1
1
1
1
1
1
1
1
1
1
1
1
1
1
1
1
1
1
1
1
1
1
1
1
1
1
1
1
1
1
1
1
1
1
1
1
1
1
1
1
1
1
1
1
1
1
1
1
1
1
1
1
1
1
1
1
1
1
1
1
1
1
1
1
1
1
1
1
1
1
1
1
1
1
1
1
1
1
1
1
1
1
1
1
1
1
1
1
1
1
1
1
1
1
1
1
1
1
1
1
1
1
1
1
1
1
1
1
1
1
1
1
1
1
1
1
1
1
1
1
1
1
1
1
1
1
1
1
1
1
1
1
1
1
1
1
1
1
1
1
1
1
1
1
1
1
1
1
1
1
1
1
1
1
1
1
1
1
1
1
1
1
1
1
1
1
1
1
1
1
1
1
1
1
1
1
1
1
1
1
1
1
1
1
1
1
1
1
1
1
1
1
1
1
1
1
1
1
1
1
1
1
1
1
1
1
1
1
1
1
1
1
1
1
1
1
1
1
1
1
1
1
1
1
1
1
1
1
1
1
1
1
1
1
1
1
1
1
1
1
1
1
1
1
1
1
1
1
1
1
1
1
1
1
1
1
1
1
1
1
1
1
1
1
1
1
1
1
1
1
1
1
1
1
1
1
1
1
1
1
1
1
1
1
1
1
1
1
1
1
1
1
1
1
1
1
1
1
1
1
1
1
1
1
1
1
1
1
1
1
1
1
1
1
1
1
1
1
1
1
1
1
1
1
1
1
1
1
1
1
1
1
1
1
1
1
1
1
1
1
1
1
1
1
VECTORS v double
-1.2070711 -1.2070711 -1.2070711
-2.5058074 -1.2070711 -1.2070711
-3.7984105 -1.2070711 -1.2070711
-5.0910187 -1.2070711 -1.2070711
-6.3836319 -1.2070711 -1.2070711
-7.676215 -1.2070711 -1.2070711
-8.9688482 -1.2070711 -1.2070711
-10.261431 -1.2070711 -1.2070711
-11.554065 -1.2070711 -1.2070711
-12.846648 -1.2070711 -1.2070711
-14.139281 -1.2070711 -1.2070711
-15.431864 -1.2070711 -1.2070711
-16.724497 -1.2070711 -1.2070711
-18.01708 -1.2070711 -1.2070711
-19.309713 -1.2070711 -1.2070711
-20.602297 -1.2070711 -1.2070711
-21.89493 -1.2070711 -1.2070711
-23.187513 -1.2070711 -1.2070711
-24.480146 -1.2070711 -1.2070711
-25.778857 -1.2070711 -1.2070711
-1.2070711 -2.5058074 -1.2070711
-2.5058074 -2.5058074 -1.2070711
-3.7984105 -2.5058074 -1.2070711
-5.0910187 -2.5058074 -1.2070711
-6.3836319 -2.5058074 -1.2070711
-7.676215 -2.5058074 -1.2070711
-8.9688482 -2.5058074 -1.2070711
-10.261431 -2.5058074 -1.2070711
-11.554065 -2.5058074 -1.2070711
-12.846648 -2.5058074 -1.2070711
-14.139281 -2.5058074 -1.2070711
-15.431864 -2.5058074 -1.2070711
-16.724497 -2.5058074 -1.2070711
-18.01708 -2.5058074 -1.2070711
-19.309713 -2.5058074 -1.2070711
-20.602297 -2.5058074 -1.2070711
-21.89493 -2.5058074 -1.2070711
-23.187513 -2.5058074 -1.2070711
-24.480146 -2.5058074 -1.2070711
-25.778857 -2.5058074 -1.2070711
-1.2070711 -3.7984105 -1.2070711
-2.5058074 -3.7984105 -1.2070711
-3.7984105 -3.7984105 -1.2070711
-5.0910187 -3.7984105 -1.2070711
-6.3836319 -3.7984105 -1.2070711
-7.676215 -3.7984105 -1.2070711
-8.9688482 -3.7984105 -1.2070711
-10.261431 -3.7984105 -1.2070711
-11.554065 -3.7984105 -1.2070711
-12.846648 -3.7984105 -1.2070711
-14.139281 -3.7984105 -1.2070711
-15.431864 -3.7984105 -1.2070711
-16.724497 -3.7984105 -1.2070711
-18.01708 -3.7984105 -1.2070711
-19.309713 -3.7984105 -1.2070711
-20.602297 -3.7984105 -1.2070711
-21.89493 -3.7984105 -1.2070711
-23.187513 -3.7984105 -1.2070711
-24.480146 -3.7984105 -1.2070711
-25.778857 -3.7984105 -1.2070711
-1.2070711 -5.0910187 -1.2070711
-2.5058074 -5.0910187 -1.2070711
-3.7984105 -5.0910187 -1.2070711
-5.0910187 -5.0910187 -1.2070711
-6.3836319 -5.0910187 -1.2070711
-7.676215 -5.0910187 -1.2070711
-8.9688482 -5.0910187 -1.2070711
-10.261431 -5.0910187 -1.2070711
-11.554065 -5.0910187 -1.2070711
-12.846648 -5.0910187 -1.2070711
-14.139281 -5.0910187 -1.2070711
-15.431864 -5.0910187 -1.2070711
-16.724497 -5.0910187 -1.2070711
-18.01708 -5.0910187 -1.2070711
-19.309713 -5.0910187 -1.2070711
-20.602297 -5.0910187 -1.2070711
-21.89493 -5.0910187 -1.2070711
-23.187513 -5.0910187 -1.2070711
-24.480146 -5.0910187 -1.2070711
-25.778857 -5.0910187 -1.2070711
-1.2070711 -6.3836319 -1.2070711
-2.5058074 -6.3836319 -1.2070711
-3.7984105 -6.3836319 -1.2070711
-5.0910187 -6.3836319 -1.2070711
-6.3836319 -6.3836319 -1.2070711
-7.676215 -6.3836319 -1.2070711
-8.9688482 -6.3836319 -1.2070711
-10.261431 -6.3836319 -1.2070711
-11.554065 -6.3836319 -1.2070711
-12.846648 -6.3836319 -1.2070711
-14.139281 -6.3836319 -1.2070711
-15.431864 -6.3836319 -1.2070711
-16.724497 -6.3836319 -1.2070711
-18.01708 -6.3836319 -1.2070711
-19.309713 -6.3836319 -1.2070711
-20.602297 -6.3836319 -1.2070711
-21.89493 -6.3836319 -1.2070711
-23.187513 -6.3836319 -1.2070711
-24.480146 -6.3836319 -1.2070711
-25.778857 -6.3836319 -1.2070711
-1.2070711 -7.676215 -1.2070711
-2.5058074 -7.676215 -1.2070711
-3.7984105 -7.676215 -1.2070711
-5.0910187 -7.676215 -1.2070711
-6.3836319 -7.676215 -1.2070711
-7.676215 -7.676215 -1.2070711
-8.9688482 -7.676215 -1.2070711
-10.261431 -7.676215 -1.2070711
-11.554065 -7.676215 -1.2070711
-12.846648 -7.676215 -1.2070711
-14.139281 -7.676215 -1.2070711
-15.431864 -7.676215 -1.2070711
-16.724497 -7.676215 -1.2070711
-18.01708 -7.676215 -1.2070711
-19.309713 -7.676215 -1.2070711
-20.602297 -7.676215 -1.2070711
-21.89493 -7.676215 -1.2070711
-23.187513 -7.676215 -1.2070711
-24.480146 -7.676215 -1.2070711
-25.778857 -7.676215 -1.2070711
-1.2070711 -8.9688482 -1.2070711
-2.5058074 -8.9688482 -1.2070711
-3.7984105 -8.9688482 -1.2070711
-5.0910187 -8.9688482 -1.2070711
-6.3836319 -8.9688482 -1.2070711
-7.676215 -8.9688482 -1.2070711
-8.9688482 -8.9688482 -1.2070711
-10.261431 -8.9688482 -1.2070711
-11.554065 -8.9688482 -1.2070711
-12.846648 -8.9688482 -1.2070711
-14.139281 -8.9688482 -1.2070711
-15.431864 -8.9688482 -1.2070711
-16.724497 -8.9688482 -1.2070711
-18.01708 -8.9688482 -1.2070711
-19.309713 -8.9688482 -1.2070711
-20.602297 -8.9688482 -1.2070711
-21.89493 -8.9688482 -1.2070711
-23.187513 -8.9688482 -1.2070711
-24.480146 -8.9688482 -1.2070711
-25.778857 -8.9688482 -1.2070711
-1.2070711 -10.261431 -1.2070711
-2.5058074 -10.261431 -1.2070711
-3.7984105 -10.261431 -1.2070711
-5.0910187 -10.261431 -1.2070711
-6.3836319 -10.261431 -1.2070711
-7.676215 -10.261431 -1.2070711
-8.9688482 -10.261431 -1.2070711
-10.261431 -10.261431 -1.2070711
-11.554065 -10.261431 -1.2070711
-12.846648 -10.261431 -1.2070711
-14.139281 -10.261431 -1.2070711
-15.431864 -10.261431 -1.2070711
-16.724497 -10.261431 -1.2070711
-18.01708 -10.261431 -1.2070711
-19.309713 -10.261431 -1.2070711
-20.602297 -10.261431 -1.2070711
-21.89493 -10.261431 -1.2070711
-23.187513 -10.261431 -1.2070711
-24.480146 -10.261431 -1.2070711
-25.778857 -10.261431 -1.2070711
-1.2070711 -11.554065 -1.2070711
-2.5058074 -11.554065 -1.2070711
-3.7984105 -11.554065 -1.2070711
-5.0910187 -11.554065 -1.2070711
-6.3836319 -11.554065 -1.2070711
-7.676215 -11.554065 -1.2070711
-8.9688482 -11.554065 -1.2070711
-10.261431 -11.554065 -1.2070711
-11.554065 -11.554065 -1.2070711
-12.846648 -11.554065 -1.2070711
-14.139281 -11.554065 -1.2070711
-15.431864 -11.554065 -1.2070711
-16.724497 -11.554065 -1.2070711
-18.01708 -11.554065 -1.2070711
-19.309713 -11.554065 -1.2070711
-20.602297 -11.554065 -1.2070711
-21.89493 -11.554065 -1.2070711
-23.187513 -11.554065 -1.2070711
-24.480146 -11.554065 -1.2070711
-25.778857 -11.554065 -1.2070711
-1.2070711 -12.846648 -1.2070711
-2.5058074 -12.846648 -1.2070711
-3.7984105 -12.846648 -1.2070711
-5.0910187 -12.846648 -1.2070711
-6.3836319 -12.846648 -1.2070711
-7.676215 -12.846648 -1.2070711
-8.9688482 -12.846648 -1.2070711
-10.261431 -12.846648 -1.2070711
-11.554065 -12.846648 -1.2070711
-12.846648 -12.846648 -1.2070711
-14.139281 -12.846648 -1.2070711
-15.431864 -12.846648 -1.2070711
-16.724497 -12.846648 -1.2070711
-18.01708 -12.846648 -1.2070711
-19.309713 -12.846648 -1.2070711
-20.602297 -12.846648 -1.2070711
-21.89493 -12.846648 -1.2070711
-23.187513 -12.846648 -1.2070711
-24.480146 -12.846648 -1.2070711
-25.778857 -12.846648 -1.2070711
-1.2070711 -14.139281 -1.2070711
-2.5058074 -14.139281 -1.2070711
-3.7984105 -14.139281 -1.2070711
-5.0910187 -14.139281 -1.2070711
-6.3836319 -14.139281 -1.2070711
-7.676215 -14.139281 -1.2070711
-8.9688482 -14.139281 -1.2070711
-10.261431 -14.139281 -1.2070711
-11.554065 -14.139281 -1.2070711
-12.846648 -14.139281 -1.2070711
-14.139281 -14.139281 -1.2070711
-15.431864 -14.139281 -1.2070711
-16.724497 -14.139281 -1.2070711
-18.01708 -14.139281 -1.2070711
-19.309713 -14.139281 -1.2070711
-20.602297 -14.139281 -1.2070711
-21.89493 -14.139281 -1.2070711
-23.187513 -14.139281 -1.2070711
-24.480146 -14.139281 -1.2070711
-25.778857 -14.139281 -1.2070711
-1.2070711 -15.431864 -1.2070711
-2.5058074 -15.431864 -1.2070711
-3.7984105 -15.431864 -1.2070711
-5.0910187 -15.431864 -1.2070711
-6.3836319 -15.431864 -1.2070711
-7.676215 -15.431864 -1.2070711
-8.9688482 -15.431864 -1.2070711
-10.261431 -15.431864 -1.2070711
-11.554065 -15.431864 -1.2070711
-12.846648 -15.431864 -1.2070711
-14.139281 -15.431864 -1.2070711
-15.431864 -15.431864 -1.2070711
-16.724497 -15.431864 -1.2070711
-18.01708 -15.431864 -1.2070711
-19.309713 -15.431864 -1.2070711
-20.602297 -15.431864 -1.2070711
-21.89493 -15.431864 -1.2070711
-23.187513 -15.431864 -1.2070711
-24.480146 -15.431864 -1.2070711
-25.778857 -15.431864 -1.2070711
-1.2070711 -16.724497 -1.2070711
-2.5058074 -16.724497 -1.2070711
-3.7984105 -16.724497 -1.2070711
-5.0910187 -16.724497 -1.2070711
-6.3836319 -16.724497 -1.2070711
-7.676215 -16.724497 -1.2070711
-8.9688482 -16.724497 -1.2070711
-10.261431 -16.724497 -1.2070711
-11.554065 -16.724497 -1.2070711
-12.846648 -16.724497 -1.2070711
-14.139281 -16.724497 -1.2070711
-15.431864 -16.724497 -1.2070711
-16.724497 -16.724497 -1.2070711
-18.01708 -16.724497 -1.2070711
-19.309713 -16.724497 -1.2070711
-20.602297 -16.724497 -1.2070711
-21.89493 -16.724497 -1.2070711
-23.187513 -16.724497 -1.2070711
-24.480146 -16.724497 -1.2070711
-25.778857 -16.724497 -1.2070711
-1.2070711 -18.01708 -1.2070711
-2.5058074 -18.01708 -1.2070711
-3.7984105 -18.01708 -1.2070711
-5.0910187 -18.01708 -1.2070711
-6.3836319 -18.01708 -1.2070711
-7.676215 -18.01708 -1.2070711
-8.9688482 -18.01708 -1.2070711
-10.261431 -18.01708 -1.2070711
-11.554065 -18.01708 -1.2070711
-12.846648 -18.01708 -1.2070711
-14.139281 -18.01708 -1.2070711
-15.431864 -18.01708 -1.2070711
-16.724497 -18.01708 -1.2070711
-18.01708 -18.01708 -1.2070711
-19.309713 -18.01708 -1.2070711
-20.602297 -18.01708 -1.2070711
-21.89493 -18.01708 -1.2070711
-23.187513 -18.01708 -1.2070711
-24.480146 -18.01708 -1.2070711
-25.778857 -18.01708 -1.2070711
-1.2070711 -19.309713 -1.2070711
-2.5058074 -19.309713 -1.2070711
-3.7984105 -19.309713 -1.2070711
-5.0910187 -19.309713 -1.2070711
-6.3836319 -19.309713 -1.2070711
-7.676215 -19.309713 -1.2070711
-8.9688482 -19.309713 -1.2070711
-10.261431 -19.309713 -1.2070711
-11.554065 -19.309713 -1.2070711
-12.846648 -19.309713 -1.2070711
-14.139281 -19.309713 -1.2070711
-15.431864 -19.309713 -1.2070711
-16.724497 -19.309713 -1.2070711
-18.01708 -19.309713 -1.2070711
-19.309713 -19.309713 -1.2070711
-20.602297 -19.309713 -1.2070711
-21.89493 -19.309713 -1.2070711
-23.187513 -19.309713 -1.2070711
-24.480146 -19.309713 -1.2070711
-25.778857 -19.309713 -1.2070711
-1.2070711 -20.602297 -1.2070711
-2.5058074 -20.602297 -1.2070711
-3.7984105 -20.602297 -1.2070711
-5.0910187 -20.602297 -1.2070711
-6.3836319 -20.602297 -1.2070711
-7.676215 -20.602297 -1.2070711
-8.9688482 -20.602297 -1.2070711
-10.261431 -20.602297 -1.2070711
-11.554065 -20.602297 -1.2070711
-12.846648 -20.602297 -1.2070711
-14.139281 -20.602297 -1.2070711
-15.431864 -20.602297 -1.2070711
-16.724497 -20.602297 -1.2070711
-18.01708 -20.602297 -1.2070711
-19.309713 -20.602297 -1.2070711
-20.602297 -20.602297 -1.2070711
-21.89493 -20.602297 -1.2070711
-23.187513 -20.602297 -1.2070711
-24.480146 -20.602297 -1.2070711
-25.778857 -20.602297 -1.2070711
-1.2070711 -21.89493 -1.2070711
-2.5058074 -21.89493 -1.2070711
-3.7984105 -21.89493 -1.2070711
-5.0910187 -21.89493 -1.2070711
-6.3836319 -21.89493 -1.2070711
-7.676215 -21.89493 -1.2070711
-8.9688482 -21.89493 -1.2070711
-10.261431 -21.89493 -1.2070711
-11.554065 -21.89493 -1.2070711
-12.846648 -21.89493 -1.2070711
-14.139281 -21.89493 -1.2070711
-15.431864 -21.89493 -1.2070711
-16.724497 -21.89493 -1.2070711
-18.01708 -21.89493 -1.2070711
-19.309713 -21.89493 -1.2070711
-20.602297 -21.89493 -1.2070711
-21.89493 -21.89493 -1.2070711
-23.187513 -21.89493 -1.2070711
-24.480146 -21.89493 -1.2070711
-25.778857 -21.89493 -1.2070711
-1.2070711 -23.187513 -1.2070711
-2.5058074 -23.187513 -1.2070711
-3.7984105 -23.187513 -1.2070711
-5.0910187 -23.187513 -1.2070711
-6.3836319 -23.187513 -1.2070711
-7.676215 -23.187513 -1.2070711
-8.9688482 -23.187513 -1.2070711
-10.261431 -23.187513 -1.2070711
-11.554065 -23.187513 -1.2070711
-12.846648 -23.187513 -1.2070711
-14.139281 -23.187513 -1.2070711
-15.431864 -23.187513 -1.2070711
-16.724497 -23.187513 -1.2070711
-18.01708 -23.187513 -1.2070711
-19.309713 -23.187513 -1.2070711
-20.602297 -23.187513 -1.2070711
-21.89493 -23.187513 -1.2070711
-23.187513 -23.187513 -1.2070711
-24.480146 -23.187513 -1.2070711
-25.778857 -23.187513 -1.2070711
-1.2070711 -24.480146 -1.2070711
-2.5058074 -24.480146 -1.2070711
-3.7984105 -24.480146 -1.2070711
-5.0910187 -24.480146 -1.2070711
-6.3836319 -24.480146 -1.2070711
-7.676215 -24.480146 -1.2070711
-8.9688482 -24.480146 -1.2070711
-10.261431 -24.480146 -1.2070711
-11.554065 -24.480146 -1.2070711
-12.846648 -24.480146 -1.2070711
-14.139281 -24.480146 -1.2070711
-15.431864 -24.480146 -1.2070711
-16.724497 -24.480146 -1.2070711
-18.01708 -24.480146 -1.2070711
-19.309713 -24.480146 -1.2070711
-20.602297 -24.480146 -1.2070711
-21.89493 -24.480146 -1.2070711
-23.187513 -24.480146 -1.2070711
-24.480146 -24.480146 -1.2070711
-25.778857 -24.480146 -1.2070711
-1.2070711 -25.778857 -1.2070711
-2.5058074 -25.778857 -1.2070711
-3.7984105 -25.778857 -1.2070711
-5.0910187 -25.778857 -1.2070711
-6.3836319 -25.778857 -1.2070711
-7.676215 -25.778857 -1.2070711
-8.9688482 -25.778857 -1.2070711
-10.261431 -25.778857 -1.2070711
-11.554065 -25.778857 -1.2070711
-12.846648 -25.778857 -1.2070711
-14.139281 -25.778857 -1.2070711
-15.431864 -25.778857 -1.2070711
-16.724497 -25.778857 -1.2070711
-18.01708 -25.778857 -1.2070711
-19.309713 -25.778857 -1.2070711
-20.602297 -25.778857 -1.2070711
-21.89493 -25.778857 -1.2070711
-23.187513 -25.778857 -1.2070711
-24.480146 -25.778857 -1.2070711
-25.778857 -25.778857 -1.2070711
-1.2070711 -1.2070711 -2.5058074
-2.5058074 -1.2070711 -2.5058074
-3.7984105 -1.2070711 -2.5058074
-5.0910187 -1.2070711 -2.5058074
-6.3836319 -1.2070711 -2.5058074
-7.676215 -1.2070711 -2.5058074
-8.9688482 -1.2070711 -2.5058074
-10.261431 -1.2070711 -2.5058074
-11.554065 -1.2070711 -2.5058074
-12.846648 -1.2070711 -2.5058074
-14.139281 -1.2070711 -2.5058074
-15.431864 -1.2070711 -2.5058074
-16.724497 -1.2070711 -2.5058074
-18.01708 -1.2070711 -2.5058074
-19.309713 -1.2070711 -2.5058074
-20.602297 -1.2070711 -2.5058074
-21.89493 -1.2070711 -2.5058074
-23.187513 -1.2070711 -2.5058074
-24.480146 -1.2070711 -2.5058074
-25.778857 -1.2070711 -2.5058074
-1.2070711 -2.5058074 -2.5058074
-2.5058074 -2.5058074 -2.5058074
-3.7984105 -2.5058074 -2.5058074
-5.0910187 -2.5058074 -2.5058074
-6.3836319 -2.5058074 -2.5058074