# vtk DataFile Version 4.0
hesp visualization file
ASCII
DATASET UNSTRUCTURED_GRID
POINTS 3000 double
0.18959428 0.18959428 0.18959428
2.4305318 0.18959428 0.18959428
4.6749899 0.18959428 0.18959428
6.9194566 0.18959428 0.18959428
9.1639321 0.18959428 0.18959428
11.408355 0.18959428 0.18959428
13.652866 0.18959428 0.18959428
15.897289 0.18959428 0.18959428
18.141799 0.18959428 0.18959428
20.386222 0.18959428 0.18959428
22.630733 0.18959428 0.18959428
24.875156 0.18959428 0.18959428
27.119666 0.18959428 0.18959428
29.364089 0.18959428 0.18959428
31.6086 0.18959428 0.18959428
33.853023 0.18959428 0.18959428
36.097533 0.18959428 0.18959428
38.341956 0.18959428 0.18959428
40.586467 0.18959428 0.18959428
42.827361 0.18959428 0.18959428
0.18959428 2.4305318 0.18959428
2.4305318 2.4305318 0.18959428
4.6749899 2.4305318 0.18959428
6.9194566 2.4305318 0.18959428
9.1639321 2.4305318 0.18959428
11.408355 2.4305318 0.18959428
13.652866 2.4305318 0.18959428
15.897289 2.4305318 0.18959428
18.141799 2.4305318 0.18959428
20.386222 2.4305318 0.18959428
22.630733 2.4305318 0.18959428
24.875156 2.4305318 0.18959428
27.119666 2.4305318 0.18959428
29.364089 2.4305318 0.18959428
31.6086 2.4305318 0.18959428
33.853023 2.4305318 0.18959428
36.097533 2.4305318 0.18959428
38.341956 2.4305318 0.18959428
40.586467 2.4305318 0.18959428
42.827361 2.4305318 0.18959428
0.18959428 4.6749899 0.18959428
2.4305318 4.6749899 0.18959428
4.6749899 4.6749899 0.18959428
6.9194566 4.6749899 0.18959428
9.1639321 4.6749899 0.18959428
11.408355 4.6749899 0.18959428
13.652866 4.6749899 0.18959428
15.897289 4.6749899 0.18959428
18.141799 4.6749899 0.18959428
20.386222 4.6749899 0.18959428
22.630733 4.6749899 0.18959428
24.875156 4.6749899 0.18959428
27.119666 4.6749899 0.18959428
29.364089 4.6749899 0.18959428
31.6086 4.6749899 0.18959428
33.853023 4.6749899 0.18959428
36.097533 4.6749899 0.18959428
38.341956 4.6749899 0.18959428
40.586467 4.6749899 0.18959428
42.827361 4.6749899 0.18959428
0.18959428 6.9194566 0.18959428
2.4305318 6.9194566 0.18959428
4.6749899 6.9194566 0.18959428
6.9194566 6.9194566 0.18959428
9.1639321 6.9194566 0.18959428
11.408355 6.9194566 0.18959428
13.652866 6.9194566 0.18959428
15.897289 6.9194566 0.18959428
18.141799 6.9194566 0.18959428
20.386222 6.9194566 0.18959428
22.630733 6.9194566 0.18959428
24.875156 6.9194566 0.18959428
27.119666 6.9194566 0.18959428
29.364089 6.9194566 0.18959428
31.6086 6.9194566 0.18959428
33.853023 6.9194566 0.18959428
36.097533 6.9194566 0.18959428
38.341956 6.9194566 0.18959428
40.586467 6.9194566 0.18959428
42.827361 6.9194566 0.18959428
0.18959428 9.1639321 0.18959428
2.4305318 9.1639321 0.18959428
4.6749899 9.1639321 0.18959428
6.9194566 9.1639321 0.18959428
9.1639321 9.1639321 0.18959428
11.408355 9.1639321 0.18959428
13.652866 9.1639321 0.18959428
15.897289 9.1639321 0.18959428
18.141799 9.1639321 0.18959428
20.386222 9.1639321 0.18959428
22.630733 9.1639321 0.18959428
24.875156 9.1639321 0.18959428
27.119666 9.1639321 0.18959428
29.364089 9.1639321 0.18959428
31.6086 9.1639321 0.18959428
33.853023 9.1639321 0.18959428
36.097533 9.1639321 0.18959428
38.341956 9.1639321 0.18959428
40.586467 9.1639321 0.18959428
42.827361 9.1639321 0.18959428
0.18959428 11.408355 0.18959428
2.4305318 11.408355 0.18959428
4.6749899 11.408355 0.18959428
6.9194566 11.408355 0.18959428
9.1639321 11.408355 0.18959428
11.408355 11.408355 0.18959428
13.652866 11.408355 0.18959428
15.897289 11.408355 0.18959428
18.141799 11.408355 0.18959428
20.386222 11.408355 0.18959428
22.630733 11.408355 0.18959428
24.875156 11.408355 0.18959428
27.119666 11.408355 0.18959428
29.364089 11.408355 0.18959428
31.6086 11.408355 0.18959428
33.853023 11.408355 0.18959428
36.097533 11.408355 0.18959428
38.341956 11.408355 0.18959428
40.586467 11.408355 0.18959428
42.827361 11.408355 0.18959428
0.18959428 13.652866 0.18959428
2.4305318 13.652866 0.18959428
4.6749899 13.652866 0.18959428
6.9194566 13.652866 0.18959428
9.1639321 13.652866 0.18959428
11.408355 13.652866 0.18959428
13.652866 13.652866 0.18959428
15.897289 13.652866 0.18959428
18.141799 13.652866 0.18959428
20.386222 13.652866 0.18959428
22.630733 13.652866 0.18959428
24.875156 13.652866 0.18959428
27.119666 13.652866 0.18959428
29.364089 13.652866 0.18959428
31.6086 13.652866 0.18959428
33.853023 13.652866 0.18959428
36.097533 13.652866 0.18959428
38.341956 13.652866 0.18959428
40.586467 13.652866 0.18959428
42.827361 13.652866 0.18959428
0.18959428 15.897289 0.18959428
2.4305318 15.897289 0.18959428
4.6749899 15.897289 0.18959428
6.9194566 15.897289 0.18959428
9.1639321 15.897289 0.18959428
11.408355 15.897289 0.18959428
13.652866 15.897289 0.18959428
15.897289 15.897289 0.18959428
18.141799 15.897289 0.18959428
20.386222 15.897289 0.18959428
22.630733 15.897289 0.18959428
24.875156 15.897289 0.18959428
27.119666 15.897289 0.18959428
29.364089 15.897289 0.18959428
31.6086 15.897289 0.18959428
33.853023 15.897289 0.18959428
36.097533 15.897289 0.18959428
38.341956 15.897289 0.18959428
40.586467 15.897289 0.18959428
42.827361 15.897289 0.18959428
0.18959428 18.141799 0.18959428
2.4305318 18.141799 0.18959428
4.6749899 18.141799 0.18959428
6.9194566 18.141799 0.18959428
9.1639321 18.141799 0.18959428
11.408355 18.141799 0.18959428
13.652866 18.141799 0.18959428
15.897289 18.141799 0.18959428
18.141799 18.141799 0.18959428
20.386222 18.141799 0.18959428
22.630733 18.141799 0.18959428
24.875156 18.141799 0.18959428
27.119666 18.141799 0.18959428
29.364089 18.141799 0.18959428
31.6086 18.141799 0.18959428
33.853023 18.141799 0.18959428
36.097533 18.141799 0.18959428
38.341956 18.141799 0.18959428
40.586467 18.141799 0.18959428
42.827361 18.141799 0.18959428
0.18959428 20.386222 0.18959428
2.4305318 20.386222 0.18959428
4.6749899 20.386222 0.18959428
6.9194566 20.386222 0.18959428
9.1639321 20.386222 0.18959428
11.408355 20.386222 0.18959428
13.652866 20.386222 0.18959428
15.897289 20.386222 0.18959428
18.141799 20.386222 0.18959428
20.386222 20.386222 0.18959428
22.630733 20.386222 0.18959428
24.875156 20.386222 0.18959428
27.119666 20.386222 0.18959428
29.364089 20.386222 0.18959428
31.6086 20.386222 0.18959428
33.853023 20.386222 0.18959428
36.097533 20.386222 0.18959428
38.341956 20.386222 0.18959428
40.586467 20.386222 0.18959428
42.827361 20.386222 0.18959428
0.18959428 22.630733 0.18959428
2.4305318 22.630733 0.18959428
4.6749899 22.630733 0.18959428
6.9194566 22.630733 0.18959428
9.1639321 22.630733 0.18959428
11.408355 22.630733 0.18959428
13.652866 22.630733 0.18959428
15.897289 22.630733 0.18959428
18.141799 22.630733 0.18959428
20.386222 22.630733 0.18959428
22.630733 22.630733 0.18959428
24.875156 22.630733 0.18959428
27.119666 22.630733 0.18959428
29.364089 22.630733 0.18959428
31.6086 22.630733 0.18959428
33.853023 22.630733 0.18959428
36.097533 22.630733 0.18959428
38.341956 22.630733 0.18959428
40.586467 22.630733 0.18959428
42.827361 22.630733 0.18959428
0.18959428 24.875156 0.18959428
2.4305318 24.875156 0.18959428
4.6749899 24.875156 0.18959428
6.9194566 24.875156 0.18959428
9.1639321 24.875156 0.18959428
11.408355 24.875156 0.18959428
13.652866 24.875156 0.18959428
15.897289 24.875156 0.18959428
18.141799 24.875156 0.18959428
20.386222 24.875156 0.18959428
22.630733 24.875156 0.18959428
24.875156 24.875156 0.18959428
27.119666 24.875156 0.18959428
29.364089 24.875156 0.18959428
31.6086 24.875156 0.18959428
33.853023 24.875156 0.18959428
36.097533 24.875156 0.18959428
38.341956 24.875156 0.18959428
40.586467 24.875156 0.18959428
42.827361 24.875156 0.18959428
0.18959428 27.119666 0.18959428
2.4305318 27.119666 0.18959428
4.6749899 27.119666 0.18959428
6.9194566 27.119666 0.18959428
9.1639321 27.119666 0.18959428
11.408355 27.119666 0.18959428
13.652866 27.119666 0.18959428
15.897289 27.119666 0.18959428
18.141799 27.119666 0.18959428
20.386222 27.119666 0.18959428
22.630733 27.119666 0.18959428
24.875156 27.119666 0.18959428
27.119666 27.119666 0.18959428
29.364089 27.119666 0.18959428
31.6086 27.119666 0.18959428
33.853023 27.119666 0.18959428
36.097533 27.119666 0.18959428
38.341956 27.119666 0.18959428
40.586467 27.119666 0.18959428
42.827361 27.119666 0.18959428
0.18959428 29.364089 0.18959428
2.4305318 29.364089 0.18959428
4.6749899 29.364089 0.18959428
6.9194566 29.364089 0.18959428
9.1639321 29.364089 0.18959428
11.408355 29.364089 0.18959428
13.652866 29.364089 0.18959428
15.897289 29.364089 0.18959428
18.141799 29.364089 0.18959428
20.386222 29.364089 0.18959428
22.630733 29.364089 0.18959428
24.875156 29.364089 0.18959428
27.119666 29.364089 0.18959428
29.364089 29.364089 0.18959428
31.6086 29.364089 0.18959428
33.853023 29.364089 0.18959428
36.097533 29.364089 0.18959428
38.341956 29.364089 0.18959428
40.586467 29.364089 0.18959428
42.827361 29.364089 0.18959428
0.18959428 31.6086 0.18959428
2.4305318 31.6086 0.18959428
4.6749899 31.6086 0.18959428
6.9194566 31.6086 0.18959428
9.1639321 31.6086 0.18959428
11.408355 31.6086 0.18959428
13.652866 31.6086 0.18959428
15.897289 31.6086 0.18959428
18.141799 31.6086 0.18959428
20.386222 31.6086 0.18959428
22.630733 31.6086 0.18959428
24.875156 31.6086 0.18959428
27.119666 31.6086 0.18959428
29.364089 31.6086 0.18959428
31.6086 31.6086 0.18959428
33.853023 31.6086 0.18959428
36.097533 31.6086 0.18959428
38.341956 31.6086 0.18959428
40.586467 31.6086 0.18959428
42.827361 31.6086 0.18959428
0.18959428 33.853023 0.18959428
2.4305318 33.853023 0.18959428
4.6749899 33.853023 0.18959428
6.9194566 33.853023 0.18959428
9.1639321 33.853023 0.18959428
11.408355 33.853023 0.18959428
13.652866 33.853023 0.18959428
15.897289 33.853023 0.18959428
18.141799 33.853023 0.18959428
20.386222 33.853023 0.18959428
22.630733 33.853023 0.18959428
24.875156 33.853023 0.18959428
27.119666 33.853023 0.18959428
29.364089 33.853023 0.18959428
31.6086 33.853023 0.18959428
33.853023 33.853023 0.18959428
36.097533 33.853023 0.18959428
38.341956 33.853023 0.18959428
40.586467 33.853023 0.18959428
42.827361 33.853023 0.18959428
[...]
POINT_DATA 3000
SCALARS m double
LOOKUP_TABLE default
1
1
1
1
1
1
1
1
1
1
1
1
1
1
1
1
1
1
1
1
1
1
1
1
1
1
1
1
1
1
1
1
1
1
1
1
1
1
1
1
1
1
1
1
1
1
1
1
1
1
1
1
1
1
1
1
1
1
1
1
1
1
1
1
1
1
1
1
1
1
1
1
1
1
1
1
1
1
1
1
1
1
1
1
1
1
1
1
1
1
1
1
1
1
1
1
1
1
1
1
1
1
1
1
1
1
1
1
1
1
1
1
1
1
1
1
1
1
1
1
1
1
1
1
1
1
1
1
1
1
1
1
1
1
1
1
1
1
1
1
1
1
1
1
1
1
1
1
1
1
1
1
1
1
1
1
1
1
1
1
1
1
1
1
1
1
1
1
1
1
1
1
1
1
1
1
1
1
1
1
1
1
1
1
1
1
1
1
1
1
1
1
1
1
1
1
1
1
1
1
1
1
1
1
1
1
1
1
1
1
1
1
1
1
1
1
1
1
1
1
1
1
1
1
1
1
1
1
1
1
1
1
1
1
1
1
1
1
1
1
1
1
1
1
1
1
1
1
1
1
1
1
1
1
1
1
1
1
1
1
1
1
1
1
1
1
1
1
1
1
1
1
1
1
1
1
1
1
1
1
1
1
1
1
1
1
1
1
1
1
1
1
1
1
1
1
1
1
1
1
1
1
1
1
1
1
1
1
1
1
1
1
1
1
1
1
1
1
1
1
1
1
1
1
1
1
1
1
1
1
1
1
1
1
1
1
1
1
1
1
1
1
1
1
1
1
1
1
1
1
1
1
1
1
1
1
1
1
1
1
1
1
1
1
1
1
1
1
1
1
1
1
1
1
1
1
1
1
1
1
1
1
1
1
1
1
1
1
1
1
1
1
1
1
1
1
1
1
1
1
1
1
1
1
1
1
1
1
1
1
1
1
1
1
1
1
1
1
1
1
1
1
1
1
1
1
1
1
1
1
1
1
1
1
1
1
1
1
1
1
1
1
1
1
1
1
1
1
1
1
1
1
1
1
1
1
1
1
1
1
1
1
1
1
1
1
1
1
1
1
1
1
1
1
1
1
1
1
1
1
1
1
1
1
1
1
1
1
1
1
1
1
1
1
1
1
1
1
1
1
1
1
1
1
1
1
1
1
1
1
1
1
1
1
1
1
1
1
1
1
1
1
1
1
1
1
1
1
1
1
1
1
1
1
1
1
1
1
1
1
1
1
1
1
1
1
1
1
1
1
1
1
1
1
1
1
1
1
1
1
1
1
1
1
1
1
1
1
1
1
1
1
1
1
1
1
1
1
1
1
1
1
1
1
1
1
1
1
1
1
1
1
1
1
1
1
1
1
1
1
1
1
1
1
1
1
1
1
1
1
1
1
1
1
1
1
1
1
1
1
1
1
1
1
1
1
1
1
1
1
1
1
1
1
1
1
1
1
1
1
1
1
1
1
1
1
1
1
1
1
1
1
1
1
1
1
1
1
1
1
1
1
1
1
1
1
1
1
1
1
1
1
1
1
1
1
1
1
1
1
1
1
1
1
1
1
1
1
1
1
1
1
1
1
1
1
1
1
1
1
1
1
1
1
1
1
1
1
1
1
1
1
1
1
1
1
1
1
1
1
1
1
1
1
1
1
1
1
1
1
1
1
1
1
1
1
1
1
1
1
1
1
1
1
1
1
1
1
1
1
1
1
1
1
1
1
1
1
1
1
1
1
1
1
1
1
1
1
1
1
1
1
1
1
1
1
1
1
1
1
1
1
1
1
1
1
1
1
1
1
1
1
1
1
1
1
1
1
1
1
1
1
1
1
1
1
1
1
1
1
1
1
1
1
1
1
1
1
1
1
1
1
1
1
1
1
1
1
1
1
1
1
1
1
1
1
1
1
1
1
1
1
1
1
1
1
1
1
1
1
1
1
1
1
1
1
1
1
1
1
1
1
1
1
1
1
1
1
1
1
1
1
1
1
1
1
1
1
1
1
1
1
1
1
1
1
1
1
1
1
1
1
1
1
1
1
1
1
1
1
1
1
1
1
1
1
1
1
1
1
1
1
1
1
1
1
1
1
1
1
1
1
1
1
1
1
1
1
1
1
1
1
1
1
1
1
1
1
1
1
1
1
1
1
1
1
1
1
1
1
1
1
1
1
1
1
1
1
1
1
1
1
1
1
1
1
1
1
1
1
1
1
1
1
1
1
1
1
1
1
1
1
1
1
1
1
1
1
1
1
1
1
1
1
1
1
1
1
1
1
1
1
1
1
1
1
1
1
1
1
1
1
1
1
1
1
1
1
1
1
1
1
1
1
1
1
1
1
1
1
1
1
1
1
1
1
1
1
1
1
1
1
1
1
1
1
1
1
1
1
1
1
1
1
1
1
1
1
1
1
1
1
1
1
1
1
1
1
1
1
1
1
1
1
1
1
1
1
1
1
1
1
1
1
1
1
1
1
1
1
1
1
1
1
1
1
1
1
1
1
1
1
1
1
1
1
1
1
1
1
1
1
1
1
1
1
1
1
1
1
1
1
1
1
1
1
1
1
1
1
1
1
1
1
1
1
1
1
1
1
1
1
1
1
1
1
1
1
1
1
1
1
1
1
1
1
1
1
1
1
1
1
1
1
1
1
1
1
1
1
1
1
1
1
1
1
1
1
1
1
1
1
1
1
1
1
1
1
1
1
1
1
1
1
1
1
1
1
1
1
1
1
1
1
1
1
1
1
1
1
1
1
1
1
1
1
1
1
1
1
1
1
1
1
1
1
1
1
1
1
1
1
1
1
1
1
1
1
1
1
1
1
1
1
1
1
1
1
1
1
1
1
1
1
1
1
1
1
1
1
1
1
1
1
1
1
1
1
1
1
1
1
1
1
1
1
1
1
1
1
1
1
1
1
1
1
1
1
1
1
1
1
1
1
1
1
1
1
1
1
1
1
1
1
1
1
1
1
1
1
1
1
1
1
1
1
1
1
1
1
1
1
1
1
1
1
1
1
1
1
1
1
1
1
1
1
1
1
1
1
1
1
1
1
1
1
1
1
1
1
1
1
1
1
1
1
1
1
1
1
1
1
1
1
1
1
1
1
1
1
1
1
1
1
1
1
1
1
1
1
1
1
1
1
1
1
1
1
1
1
1
1
1
1
1
1
1
1
1
1
1
1
1
1
1
1
1
1
1
1
1
1
1
1
1
1
1
1
1
1
1
1
1
1
1
1
1
1
1
1
1
1
1
1
1
1
1
1
1
1
1
1
1
1
1
1
1
1
1
1
1
1
1
1
1
1
1
1
1
1
1
1
1
1
1
1
1
1
1
1
1
1
1
1
1
1
1
1
1
1
1
1
1
1
1
1
1
1
1
1
1
1
1
1
1
1
1
1
1
1
1
1
1
1
1
1
1
1
1
1
1
1
1
1
1
1
1
1
1
1
1
1
1
1
1
1
1
1
1
1
1
1
1
1
1
1
1
1
1
1
1
1
1
1
1
1
1
1
1
1
1
1
1
1
1
1
1
1
1
1
1
1
1
1
1
1
1
1
1
1
1
1
1
1
1
1
1
1
1
1
1
1
1
1
1
1
1
1
1
1
1
1
1
1
1
1
1
1
1
1
1
1
1
1
1
1
1
1
1
1
1
1
1
1
1
1
1
1
1
1
1
1
1
1
1
1
1
1
1
1
1
1
1
1
1
1
1
1
1
1
1
1
1
1
1
1
1
1
1
1
1
1
1
1
1
1
1
1
1
1
1
1
1
1
1
1
1
1
1
1
1
1
1
1
1
1
1
1
1
1
1
1
1
1
1
1
1
1
1
1
1
1
1
1
1
1
1
1
1
1
1
1
1
1
1
1
1
1
1
1
1
1
1
1
1
1
1
1
1
1
1
1
1
1
1
1
1
1
1
1
1
1
1
1
1
1
1
1
1
1
1
1
1
1
1
1
1
1
1
1
1
1
1
1
1
1
1
1
1
1
1
1
1
1
1
1
1
1
1
1
1
1
1
1
1
1
1
1
1
1
1
1
1
1
1
1
1
1
1
1
1
1
1
1
1
1
1
1
1
1
1
1
1
1
1
1
1
1
1
1
1
1
1
1
1
1
1
1
1
1
1
1
1
1
1
1
1
1
1
1
1
1
1
1
1
1
1
1
1
1
1
1
1
1
1
1
1
1
1
1
1
1
1
1
1
1
1
1
1
1
1
1
1
1
1
1
1
1
1
1
1
1
1
1
1
1
1
1
1
1
1
1
1
1
1
1
1
1
1
1
1
1
1
1
1
1
1
1
1
1
1
1
1
1
1
1
1
1
1
1
1
1
1
1
1
1
1
1
1
1
1
1
1
1
1
1
1
1
1
1
1
1
1
1
1
1
1
1
1
1
1
1
1
1
1
1
1
1
1
1
1
1
1
1
1
1
1
1
1
1
1
1
1
1
1
1
1
1
1
1
1
1
1
1
1
1
1
1
1
1
1
1
1
1
1
1
1
1
1
1
1
1
1
1
1
1
1
1
1
1
1
1
1
1
1
1
1
1
1
1
1
1
1
1
1
1
1
1
1
1
1
1
1
1
1
1
1
1
1
1
1
1
1
1
1
1
1
1
1
1
1
1
1
1
1
1
1
1
1
1
1
1
1
1
1
1
1
1
1
1
1
1
1
1
1
1
1
1
1
1
1
1
1
1
1
1
1
1
1
1
1
1
1
1
1
1
1
1
1
1
1
1
1
1
1
1
1
1
1
1
1
1
1
1
1
1
1
1
1
1
1
1
1
1
1
1
1
1
1
1
1
1
1
1
1
1
1
1
1
1
1
1
1
1
1
1
1
1
1
1
1
1
1
1
1
1
1
1
1
1
1
1
1
1
1
1
1
1
1
1
1
1
1
1
1
1
1
1
1
1
1
1
1
1
1
1
1
1
1
1
1
1
1
1
1
1
1
1
1
1
1
1
1
1
1
1
1
1
1
1
1
1
1
1
1
1
1
1
1
1
1
1
1
1
1
1
1
1
1
1
1
1
1
1
1
1
1
1
1
1
1
1
1
1
1
1
1
1
1
1
1
1
1
1
1
1
1
1
1
1
1
1
1
1
1
1
1
1
1
1
1
1
1
1
1
1
1
1
1
1
1
1
1
1
1
1
1
1
1
1
1
1
1
1
1
1
1
1
1
1
1
1
1
1
1
1
1
1
1
1
1
1
1
1
1
1
1
1
1
1
1
1
1
1
1
1
1
1
1
1
1
1
1
1
1
1
1
1
1
1
1
1
1
1
1
1
1
1
1
1
1
1
1
1
1
1
1
1
1
1
1
1
1
1
1
1
1
1
1
1
1
1
1
1
1
1
1
1
1
1
1
1
1
1
1
1
1
1
1
1
1
1
1
1
1
1
1
1
1
1
1
1
1
1
1
1
1
1
1
1
1
1
1
1
1
1
1
1
1
1
1
1
1
1
1
1
1
1
1
1
1
1
1
1
1
1
1
1
1
1
1
1
1
1
1
1
1
1
1
1
1
1
1
1
1
1
1
1
1
1
1
1
1
1
1
1
1
1
1
1
1
1
1
1
1
1
1
1
1
1
1
1
1
1
1
1
1
1
1
1
1
1
1
1
1
1
1
1
1
1
1
1
1
1
1
1
1
1
1
1
1
1
1
1
1
1
1
1
1
1
1
1
1
1
1
1
1
1
1
1
1
1
1
1
1
1
1
1
1
1
1
1
1
1
1
1
1
1
1
1
1
1
1
1
1
1
1
1
1
1
1
1
1
1
1
1
1
1
1
1
1
1
1
1
1
1
1
1
1
1
1
1
1
1
1
1
1
1
1
1
1
1
1
1
1
1
1
1
1
1
1
1
1
1
1
1
1
1
1
1
1
1
1
1
1
1
1
1
1
1
1
1
1
1
1
1
1
1
1
1
1
1
1
1
1
1
1
1
1
1
1
1
1
1
1
1
1
1
1
1
1
1
1
1
1
1
1
1
1
1
1
1
1
1
1
1
1
1
1
1
1
1
1
1
1
1
1
1
1
1
1
1
1
1
1
1
1
1
1
1
1
1
1
1
1
1
1
1
1
1
1
1
1
1
1
1
1
1
1
1
1
1
1
1
1
1
1
1
1
1
1
1
1
1
1
1
1
1
1
1
1
1
1
1
1
1
1
1
1
1
1
1
1
1
1
1
1
1
1
1
1
1
1
1
1
1
1
1
1
1
1
1
1
1
1
1
1
1
1
1
1
1
1
1
1
1
1
1
1
1
1
1
1
1
1
1
1
1
1
1
1
1
1
1
1
1
1
1
1
1
1
1
1
1
1
1
1
1
1
1
1
1
1
1
1
1
1
1
1
1
1
1
1
1
1
1
1
1
1
1
1
1
1
1
1
1
1
1
1
1
1
1
1
1
1
1
1
1
1
1
1
1
1
1
1
1
1
1
1
1
1
1
1
1
1
1
1
1
1
1
1
1
1
1
1
1
1
1
1
1
1
1
1
1
1
1
1
1
1
1
1
1
1
1
1
1
1
1
1
1
1
1
1
1
1
1
1
1
1
1
1
1
1
1
1
1
1
1
1
1
1
1
1
1
1
1
1
1
1
1
1
1
1
1
1
1
1
1
1
1
1
1
1
1
1
1
1
1
1
1
1
1
1
1
1
1
1
1
1
1
1
1
1
1
1
1
1
1
1
1
1
1
1
1
1
1
1
1
1
1
1
1
1
1
1
1
1
1
1
1
1
1
1
1
1
1
1
1
1
1
1
1
1
1
1
1
1
1
1
1
VECTORS v double
-1.1860298 -1.1860298 -1.1860298
-2.4624211 -1.1860298 -1.1860298
-3.7326437 -1.1860298 -1.1860298
-5.0028713 -1.1860298 -1.1860298
-6.2731038 -1.1860298 -1.1860298
-7.5433067 -1.1860298 -1.1860298
-8.8135589 -1.1860298 -1.1860298
-10.083762 -1.1860298 -1.1860298
-11.354014 -1.1860298 -1.1860298
-12.624217 -1.1860298 -1.1860298
-13.894469 -1.1860298 -1.1860298
-15.164672 -1.1860298 -1.1860298
-16.434924 -1.1860298 -1.1860298
-17.705127 -1.1860298 -1.1860298
-18.975379 -1.1860298 -1.1860298
-20.245582 -1.1860298 -1.1860298
-21.515835 -1.1860298 -1.1860298
-22.786038 -1.1860298 -1.1860298
-24.05629 -1.1860298 -1.1860298
-25.332656 -1.1860298 -1.1860298
-1.1860298 -2.4624211 -1.1860298
-2.4624211 -2.4624211 -1.1860298
-3.7326437 -2.4624211 -1.1860298
-5.0028713 -2.4624211 -1.1860298
-6.2731038 -2.4624211 -1.1860298
-7.5433067 -2.4624211 -1.1860298
-8.8135589 -2.4624211 -1.1860298
-10.083762 -2.4624211 -1.1860298
-11.354014 -2.4624211 -1.1860298
-12.624217 -2.4624211 -1.1860298
-13.894469 -2.4624211 -1.1860298
-15.164672 -2.4624211 -1.1860298
-16.434924 -2.4624211 -1.1860298
-17.705127 -2.4624211 -1.1860298
-18.975379 -2.4624211 -1.1860298
-20.245582 -2.4624211 -1.1860298
-21.515835 -2.4624211 -1.1860298
-22.786038 -2.4624211 -1.1860298
-24.05629 -2.4624211 -1.1860298
-25.332656 -2.4624211 -1.1860298
-1.1860298 -3.7326437 -1.1860298
-2.4624211 -3.7326437 -1.1860298
-3.7326437 -3.7326437 -1.1860298
-5.0028713 -3.7326437 -1.1860298
-6.2731038 -3.7326437 -1.1860298
-7.5433067 -3.7326437 -1.1860298
-8.8135589 -3.7326437 -1.1860298
-10.083762 -3.7326437 -1.1860298
-11.354014 -3.7326437 -1.1860298
-12.624217 -3.7326437 -1.1860298
-13.894469 -3.7326437 -1.1860298
-15.164672 -3.7326437 -1.1860298
-16.434924 -3.7326437 -1.1860298
-17.705127 -3.7326437 -1.1860298
-18.975379 -3.7326437 -1.1860298
-20.245582 -3.7326437 -1.1860298
-21.515835 -3.7326437 -1.1860298
-22.786038 -3.7326437 -1.1860298
-24.05629 -3.7326437 -1.1860298
-25.332656 -3.7326437 -1.1860298
-1.1860298 -5.0028713 -1.1860298
-2.4624211 -5.0028713 -1.1860298
-3.7326437 -5.0028713 -1.1860298
-5.0028713 -5.0028713 -1.1860298
-6.2731038 -5.0028713 -1.1860298
-7.5433067 -5.0028713 -1.1860298
-8.8135589 -5.0028713 -1.1860298
-10.083762 -5.0028713 -1.1860298
-11.354014 -5.0028713 -1.1860298
-12.624217 -5.0028713 -1.1860298
-13.894469 -5.0028713 -1.1860298
-15.164672 -5.0028713 -1.1860298
-16.434924 -5.0028713 -1.1860298
-17.705127 -5.0028713 -1.1860298
-18.975379 -5.0028713 -1.1860298
-20.245582 -5.0028713 -1.1860298
-21.515835 -5.0028713 -1.1860298
-22.786038 -5.0028713 -1.1860298
-24.05629 -5.0028713 -1.1860298
-25.332656 -5.0028713 -1.1860298
-1.1860298 -6.2731038 -1.1860298
-2.4624211 -6.2731038 -1.1860298
-3.7326437 -6.2731038 -1.1860298
-5.0028713 -6.2731038 -1.1860298
-6.2731038 -6.2731038 -1.1860298
-7.5433067 -6.2731038 -1.1860298
-8.8135589 -6.2731038 -1.1860298
-10.083762 -6.2731038 -1.1860298
-11.354014 -6.2731038 -1.1860298
-12.624217 -6.2731038 -1.1860298
-13.894469 -6.2731038 -1.1860298
-15.164672 -6.2731038 -1.1860298
-16.434924 -6.2731038 -1.1860298
-17.705127 -6.2731038 -1.1860298
-18.975379 -6.2731038 -1.1860298
-20.245582 -6.2731038 -1.1860298
-21.515835 -6.2731038 -1.1860298
-22.786038 -6.2731038 -1.1860298
-24.05629 -6.2731038 -1.1860298
-25.332656 -6.2731038 -1.1860298
-1.1860298 -7.5433067 -1.1860298
-2.4624211 -7.5433067 -1.1860298
-3.7326437 -7.5433067 -1.1860298
-5.0028713 -7.5433067 -1.1860298
-6.2731038 -7.5433067 -1.1860298
-7.5433067 -7.5433067 -1.1860298
-8.8135589 -7.5433067 -1.1860298
-10.083762 -7.5433067 -1.1860298
-11.354014 -7.5433067 -1.1860298
-12.624217 -7.5433067 -1.1860298
-13.894469 -7.5433067 -1.1860298
-15.164672 -7.5433067 -1.1860298
-16.434924 -7.5433067 -1.1860298
-17.705127 -7.5433067 -1.1860298
-18.975379 -7.5433067 -1.1860298
-20.245582 -7.5433067 -1.1860298
-21.515835 -7.5433067 -1.1860298
-22.786038 -7.5433067 -1.1860298
-24.05629 -7.5433067 -1.1860298
-25.332656 -7.5433067 -1.1860298
-1.1860298 -8.8135589 -1.1860298
-2.4624211 -8.8135589 -1.1860298
-3.7326437 -8.8135589 -1.1860298
-5.0028713 -8.8135589 -1.1860298
-6.2731038 -8.8135589 -1.1860298
-7.5433067 -8.8135589 -1.1860298
-8.8135589 -8.8135589 -1.1860298
-10.083762 -8.8135589 -1.1860298
-11.354014 -8.8135589 -1.1860298
-12.624217 -8.8135589 -1.1860298
-13.894469 -8.8135589 -1.1860298
-15.164672 -8.8135589 -1.1860298
-16.434924 -8.8135589 -1.1860298
-17.705127 -8.8135589 -1.1860298
-18.975379 -8.8135589 -1.1860298
-20.245582 -8.8135589 -1.1860298
-21.515835 -8.8135589 -1.1860298
-22.786038 -8.8135589 -1.1860298
-24.05629 -8.8135589 -1.1860298
-25.332656 -8.8135589 -1.1860298
-1.1860298 -10.083762 -1.1860298
-2.4624211 -10.083762 -1.1860298
-3.7326437 -10.083762 -1.1860298
-5.0028713 -10.083762 -1.1860298
-6.2731038 -10.083762 -1.1860298
-7.5433067 -10.083762 -1.1860298
-8.8135589 -10.083762 -1.1860298
-10.083762 -10.083762 -1.1860298
-11.354014 -10.083762 -1.1860298
-12.624217 -10.083762 -1.1860298
-13.894469 -10.083762 -1.1860298
-15.164672 -10.083762 -1.1860298
-16.434924 -10.083762 -1.1860298
-17.705127 -10.083762 -1.1860298
-18.975379 -10.083762 -1.1860298
-20.245582 -10.083762 -1.1860298
-21.515835 -10.083762 -1.1860298
-22.786038 -10.083762 -1.1860298
-24.05629 -10.083762 -1.1860298
-25.332656 -10.083762 -1.1860298
-1.1860298 -11.354014 -1.1860298
-2.4624211 -11.354014 -1.1860298
-3.7326437 -11.354014 -1.1860298
-5.0028713 -11.354014 -1.1860298
-6.2731038 -11.354014 -1.1860298
-7.5433067 -11.354014 -1.1860298
-8.8135589 -11.354014 -1.1860298
-10.083762 -11.354014 -1.1860298
-11.354014 -11.354014 -1.1860298
-12.624217 -11.354014 -1.1860298
-13.894469 -11.354014 -1.1860298
-15.164672 -11.354014 -1.1860298
-16.434924 -11.354014 -1.1860298
-17.705127 -11.354014 -1.1860298
-18.975379 -11.354014 -1.1860298
-20.245582 -11.354014 -1.1860298
-21.515835 -11.354014 -1.1860298
-22.786038 -11.354014 -1.1860298
-24.05629 -11.354014 -1.1860298
-25.332656 -11.354014 -1.1860298
-1.1860298 -12.624217 -1.1860298
-2.4624211 -12.624217 -1.1860298
-3.7326437 -12.624217 -1.1860298
-5.0028713 -12.624217 -1.1860298
-6.2731038 -12.624217 -1.1860298
-7.5433067 -12.624217 -1.1860298
-8.8135589 -12.624217 -1.1860298
-10.083762 -12.624217 -1.1860298
-11.354014 -12.624217 -1.1860298
-12.624217 -12.624217 -1.1860298
-13.894469 -12.624217 -1.1860298
-15.164672 -12.624217 -1.1860298
-16.434924 -12.624217 -1.1860298
-17.705127 -12.624217 -1.1860298
-18.975379 -12.624217 -1.1860298
-20.245582 -12.624217 -1.1860298
-21.515835 -12.624217 -1.1860298
-22.786038 -12.624217 -1.1860298
-24.05629 -12.624217 -1.1860298
-25.332656 -12.624217 -1.1860298
-1.1860298 -13.894469 -1.1860298
-2.4624211 -13.894469 -1.1860298
-3.7326437 -13.894469 -1.1860298
-5.0028713 -13.894469 -1.1860298
-6.2731038 -13.894469 -1.1860298
-7.5433067 -13.894469 -1.1860298
-8.8135589 -13.894469 -1.1860298
-10.083762 -13.894469 -1.1860298
-11.354014 -13.894469 -1.1860298
-12.624217 -13.894469 -1.1860298
-13.894469 -13.894469 -1.1860298
-15.164672 -13.894469 -1.1860298
-16.434924 -13.894469 -1.1860298
-17.705127 -13.894469 -1.1860298
-18.975379 -13.894469 -1.1860298
-20.245582 -13.894469 -1.1860298
-21.515835 -13.894469 -1.1860298
-22.786038 -13.894469 -1.1860298
-24.05629 -13.894469 -1.1860298
-25.332656 -13.894469 -1.1860298
-1.1860298 -15.164672 -1.1860298
-2.4624211 -15.164672 -1.1860298
-3.7326437 -15.164672 -1.1860298
-5.0028713 -15.164672 -1.1860298
-6.2731038 -15.164672 -1.1860298
-7.5433067 -15.164672 -1.1860298
-8.8135589 -15.164672 -1.1860298
-10.083762 -15.164672 -1.1860298
-11.354014 -15.164672 -1.1860298
-12.624217 -15.164672 -1.1860298
-13.894469 -15.164672 -1.1860298
-15.164672 -15.164672 -1.1860298
-16.434924 -15.164672 -1.1860298
-17.705127 -15.164672 -1.1860298
-18.975379 -15.164672 -1.1860298
-20.245582 -15.164672 -1.1860298
-21.515835 -15.164672 -1.1860298
-22.786038 -15.164672 -1.1860298
-24.05629 -15.164672 -1.1860298
-25.332656 -15.164672 -1.1860298
-1.1860298 -16.434924 -1.1860298
-2.4624211 -16.434924 -1.1860298
-3.7326437 -16.434924 -1.1860298
-5.0028713 -16.434924 -1.1860298
-6.2731038 -16.434924 -1.1860298
-7.5433067 -16.434924 -1.1860298
-8.8135589 -16.434924 -1.1860298
-10.083762 -16.434924 -1.1860298
-11.354014 -16.434924 -1.1860298
-12.624217 -16.434924 -1.1860298
-13.894469 -16.434924 -1.1860298
-15.164672 -16.434924 -1.1860298
-16.434924 -16.434924 -1.1860298
-17.705127 -16.434924 -1.1860298
-18.975379 -16.434924 -1.1860298
-20.245582 -16.434924 -1.1860298
-21.515835 -16.434924 -1.1860298
-22.786038 -16.434924 -1.1860298
-24.05629 -16.434924 -1.1860298
-25.332656 -16.434924 -1.1860298
-1.1860298 -17.705127 -1.1860298
-2.4624211 -17.705127 -1.1860298
-3.7326437 -17.705127 -1.1860298
-5.0028713 -17.705127 -1.1860298
-6.2731038 -17.705127 -1.1860298
-7.5433067 -17.705127 -1.1860298
-8.8135589 -17.705127 -1.1860298
-10.083762 -17.705127 -1.1860298
-11.354014 -17.705127 -1.1860298
-12.624217 -17.705127 -1.1860298
-13.894469 -17.705127 -1.1860298
-15.164672 -17.705127 -1.1860298
-16.434924 -17.705127 -1.1860298
-17.705127 -17.705127 -1.1860298
-18.975379 -17.705127 -1.1860298
-20.245582 -17.705127 -1.1860298
-21.515835 -17.705127 -1.1860298
-22.786038 -17.705127 -1.1860298
-24.05629 -17.705127 -1.1860298
-25.332656 -17.705127 -1.1860298
-1.1860298 -18.975379 -1.1860298
-2.4624211 -18.975379 -1.1860298
-3.7326437 -18.975379 -1.1860298
-5.0028713 -18.975379 -1.1860298
-6.2731038 -18.975379 -1.1860298
-7.5433067 -18.975379 -1.1860298
-8.8135589 -18.975379 -1.1860298
-10.083762 -18.975379 -1.1860298
-11.354014 -18.975379 -1.1860298
-12.624217 -18.975379 -1.1860298
-13.894469 -18.975379 -1.1860298
-15.164672 -18.975379 -1.1860298
-16.434924 -18.975379 -1.1860298
-17.705127 -18.975379 -1.1860298
-18.975379 -18.975379 -1.1860298
-20.245582 -18.975379 -1.1860298
-21.515835 -18.975379 -1.1860298
-22.786038 -18.975379 -1.1860298
-24.05629 -18.975379 -1.1860298
-25.332656 -18.975379 -1.1860298
-1.1860298 -20.245582 -1.1860298
-2.4624211 -20.245582 -1.1860298
-3.7326437 -20.245582 -1.1860298
-5.0028713 -20.245582 -1.1860298
-6.2731038 -20.245582 -1.1860298
-7.5433067 -20.245582 -1.1860298
-8.8135589 -20.245582 -1.1860298
-10.083762 -20.245582 -1.1860298
-11.354014 -20.245582 -1.1860298
-12.624217 -20.245582 -1.1860298
-13.894469 -20.245582 -1.1860298
-15.164672 -20.245582 -1.1860298
-16.434924 -20.245582 -1.1860298
-17.705127 -20.245582 -1.1860298
-18.975379 -20.245582 -1.1860298
-20.245582 -20.245582 -1.1860298
-21.515835 -20.245582 -1.1860298
-22.786038 -20.245582 -1.1860298
-24.05629 -20.245582 -1.1860298
-25.332656 -20.245582 -1.1860298
-1.1860298 -21.515835 -1.1860298
-2.4624211 -21.515835 -1.1860298
-3.7326437 -21.515835 -1.1860298
-5.0028713 -21.515835 -1.1860298
-6.2731038 -21.515835 -1.1860298
-7.5433067 -21.515835 -1.1860298
-8.8135589 -21.515835 -1.1860298
-10.083762 -21.515835 -1.1860298
-11.354014 -21.515835 -1.1860298
-12.624217 -21.515835 -1.1860298
-13.894469 -21.515835 -1.1860298
-15.164672 -21.515835 -1.1860298
-16.434924 -21.515835 -1.1860298
-17.705127 -21.515835 -1.1860298
-18.975379 -21.515835 -1.1860298
-20.245582 -21.515835 -1.1860298
-21.515835 -21.515835 -1.1860298
-22.786038 -21.515835 -1.1860298
-24.05629 -21.515835 -1.1860298
-25.332656 -21.515835 -1.1860298
-1.1860298 -22.786038 -1.1860298
-2.4624211 -22.786038 -1.1860298
-3.7326437 -22.786038 -1.1860298
-5.0028713 -22.786038 -1.1860298
-6.2731038 -22.786038 -1.1860298
-7.5433067 -22.786038 -1.1860298
-8.8135589 -22.786038 -1.1860298
-10.083762 -22.786038 -1.1860298
-11.354014 -22.786038 -1.1860298
-12.624217 -22.786038 -1.1860298
-13.894469 -22.786038 -1.1860298
-15.164672 -22.786038 -1.1860298
-16.434924 -22.786038 -1.1860298
-17.705127 -22.786038 -1.1860298
-18.975379 -22.786038 -1.1860298
-20.245582 -22.786038 -1.1860298
-21.515835 -22.786038 -1.1860298
-22.786038 -22.786038 -1.1860298
-24.05629 -22.786038 -1.1860298
-25.332656 -22.786038 -1.1860298
-1.1860298 -24.05629 -1.1860298
-2.4624211 -24.05629 -1.1860298
-3.7326437 -24.05629 -1.1860298
-5.0028713 -24.05629 -1.1860298
-6.2731038 -24.05629 -1.1860298
-7.5433067 -24.05629 -1.1860298
-8.8135589 -24.05629 -1.1860298
-10.083762 -24.05629 -1.1860298
-11.354014 -24.05629 -1.1860298
-12.624217 -24.05629 -1.1860298
-13.894469 -24.05629 -1.1860298
-15.164672 -24.05629 -1.1860298
-16.434924 -24.05629 -1.1860298
-17.705127 -24.05629 -1.1860298
-18.975379 -24.05629 -1.1860298
-20.245582 -24.05629 -1.1860298
-21.515835 -24.05629 -1.1860298
-22.786038 -24.05629 -1.1860298
-24.05629 -24.05629 -1.1860298
-25.332656 -24.05629 -1.1860298
-1.1860298 -25.332656 -1.1860298
-2.4624211 -25.332656 -1.1860298
-3.7326437 -25.332656 -1.1860298
-5.0028713 -25.332656 -1.1860298
-6.2731038 -25.332656 -1.1860298
-7.5433067 -25.332656 -1.1860298
-8.8135589 -25.332656 -1.1860298
-10.083762 -25.332656 -1.1860298
-11.354014 -25.332656 -1.1860298
-12.624217 -25.332656 -1.1860298
-13.894469 -25.332656 -1.1860298
-15.164672 -25.332656 -1.1860298
-16.434924 -25.332656 -1.1860298
-17.705127 -25.332656 -1.1860298
-18.975379 -25.332656 -1.1860298
-20.245582 -25.332656 -1.1860298
-21.515835 -25.332656 -1.1860298
-22.786038 -25.332656 -1.1860298
-24.05629 -25.332656 -1.1860298
-25.332656 -25.332656 -1.1860298
-1.1860298 -1.1860298 -2.4624211
-2.4624211 -1.1860298 -2.4624211
-3.7326437 -1.1860298 -2.4624211
-5.0028713 -1.1860298 -2.4624211
-6.2731038 -1.1860298 -2.4624211
-7.5433067 -1.1860298 -2.4624211
-8.8135589 -1.1860298 -2.4624211
-10.083762 -1.1860298 -2.4624211
-11.354014 -1.1860298 -2.4624211
-12.624217 -1.1860298 -2.4624211
-13.894469 -1.1860298 -2.4624211
-15.164672 -1.1860298 -2.4624211
-16.434924 -1.1860298 -2.4624211
-17.705127 -1.1860298 -2.4624211
-18.975379 -1.1860298 -2.4624211
-20.245582 -1.1860298 -2.4624211
-21.515835 -1.1860298 -2.4624211
-22.786038 -1.1860298 -2.4624211
-24.05629 -1.1860298 -2.4624211
-25.332656 -1.1860298 -2.4624211
-1.1860298 -2.4624211 -2.4624211
-2.4624211 -2.4624211 -2.4624211
-3.7326437 -2.4624211 -2.4624211