# vtk DataFile Version 4.0
hesp visualization file
ASCII
DATASET UNSTRUCTURED_GRID
POINTS 3000 double
0.26738226 0.26738226 0.26738226
2.5921076 0.26738226 0.26738226
4.9199134 0.26738226 0.26738226
7.2477282 0.26738226 0.26738226
9.5755521 0.26738226 0.26738226
11.903322 0.26738226 0.26738226
14.231182 0.26738226 0.26738226
16.558951 0.26738226 0.26738226
18.886811 0.26738226 0.26738226
21.214581 0.26738226 0.26738226
23.542441 0.26738226 0.26738226
25.870211 0.26738226 0.26738226
28.198071 0.26738226 0.26738226
30.52584 0.26738226 0.26738226
32.8537 0.26738226 0.26738226
35.18147 0.26738226 0.26738226
37.50933 0.26738226 0.26738226
39.8371 0.26738226 0.26738226
42.164959 0.26738226 0.26738226
44.48964 0.26738226 0.26738226
0.26738226 2.5921076 0.26738226
2.5921076 2.5921076 0.26738226
4.9199134 2.5921076 0.26738226
7.2477282 2.5921076 0.26738226
9.5755521 2.5921076 0.26738226
11.903322 2.5921076 0.26738226
14.231182 2.5921076 0.26738226
16.558951 2.5921076 0.26738226
18.886811 2.5921076 0.26738226
21.214581 2.5921076 0.26738226
23.542441 2.5921076 0.26738226
25.870211 2.5921076 0.26738226
28.198071 2.5921076 0.26738226
30.52584 2.5921076 0.26738226
32.8537 2.5921076 0.26738226
35.18147 2.5921076 0.26738226
37.50933 2.5921076 0.26738226
39.8371 2.5921076 0.26738226
42.164959 2.5921076 0.26738226
44.48964 2.5921076 0.26738226
0.26738226 4.9199134 0.26738226
2.5921076 4.9199134 0.26738226
4.9199134 4.9199134 0.26738226
7.2477282 4.9199134 0.26738226
9.5755521 4.9199134 0.26738226
11.903322 4.9199134 0.26738226
14.231182 4.9199134 0.26738226
16.558951 4.9199134 0.26738226
18.886811 4.9199134 0.26738226
21.214581 4.9199134 0.26738226
23.542441 4.9199134 0.26738226
25.870211 4.9199134 0.26738226
28.198071 4.9199134 0.26738226
30.52584 4.9199134 0.26738226
32.8537 4.9199134 0.26738226
35.18147 4.9199134 0.26738226
37.50933 4.9199134 0.26738226
39.8371 4.9199134 0.26738226
42.164959 4.9199134 0.26738226
44.48964 4.9199134 0.26738226
0.26738226 7.2477282 0.26738226
2.5921076 7.2477282 0.26738226
4.9199134 7.2477282 0.26738226
7.2477282 7.2477282 0.26738226
9.5755521 7.2477282 0.26738226
11.903322 7.2477282 0.26738226
14.231182 7.2477282 0.26738226
16.558951 7.2477282 0.26738226
18.886811 7.2477282 0.26738226
21.214581 7.2477282 0.26738226
23.542441 7.2477282 0.26738226
25.870211 7.2477282 0.26738226
28.198071 7.2477282 0.26738226
30.52584 7.2477282 0.26738226
32.8537 7.2477282 0.26738226
35.18147 7.2477282 0.26738226
37.50933 7.2477282 0.26738226
39.8371 7.2477282 0.26738226
42.164959 7.2477282 0.26738226
44.48964 7.2477282 0.26738226
0.26738226 9.5755521 0.26738226
2.5921076 9.5755521 0.26738226
4.9199134 9.5755521 0.26738226
7.2477282 9.5755521 0.26738226
9.5755521 9.5755521 0.26738226
11.903322 9.5755521 0.26738226
14.231182 9.5755521 0.26738226
16.558951 9.5755521 0.26738226
18.886811 9.5755521 0.26738226
21.214581 9.5755521 0.26738226
23.542441 9.5755521 0.26738226
25.870211 9.5755521 0.26738226
28.198071 9.5755521 0.26738226
30.52584 9.5755521 0.26738226
32.8537 9.5755521 0.26738226
35.18147 9.5755521 0.26738226
37.50933 9.5755521 0.26738226
39.8371 9.5755521 0.26738226
42.164959 9.5755521 0.26738226
44.48964 9.5755521 0.26738226
0.26738226 11.903322 0.26738226
2.5921076 11.903322 0.26738226
4.9199134 11.903322 0.26738226
7.2477282 11.903322 0.26738226
9.5755521 11.903322 0.26738226
11.903322 11.903322 0.26738226
14.231182 11.903322 0.26738226
16.558951 11.903322 0.26738226
18.886811 11.903322 0.26738226
21.214581 11.903322 0.26738226
23.542441 11.903322 0.26738226
25.870211 11.903322 0.26738226
28.198071 11.903322 0.26738226
30.52584 11.903322 0.26738226
32.8537 11.903322 0.26738226
35.18147 11.903322 0.26738226
37.50933 11.903322 0.26738226
39.8371 11.903322 0.26738226
42.164959 11.903322 0.26738226
44.48964 11.903322 0.26738226
0.26738226 14.231182 0.26738226
2.5921076 14.231182 0.26738226
4.9199134 14.231182 0.26738226
7.2477282 14.231182 0.26738226
9.5755521 14.231182 0.26738226
11.903322 14.231182 0.26738226
14.231182 14.231182 0.26738226
16.558951 14.231182 0.26738226
18.886811 14.231182 0.26738226
21.214581 14.231182 0.26738226
23.542441 14.231182 0.26738226
25.870211 14.231182 0.26738226
28.198071 14.231182 0.26738226
30.52584 14.231182 0.26738226
32.8537 14.231182 0.26738226
35.18147 14.231182 0.26738226
37.50933 14.231182 0.26738226
39.8371 14.231182 0.26738226
42.164959 14.231182 0.26738226
44.48964 14.231182 0.26738226
0.26738226 16.558951 0.26738226
2.5921076 16.558951 0.26738226
4.9199134 16.558951 0.26738226
7.2477282 16.558951 0.26738226
9.5755521 16.558951 0.26738226
11.903322 16.558951 0.26738226
14.231182 16.558951 0.26738226
16.558951 16.558951 0.26738226
18.886811 16.558951 0.26738226
21.214581 16.558951 0.26738226
23.542441 16.558951 0.26738226
25.870211 16.558951 0.26738226
28.198071 16.558951 0.26738226
30.52584 16.558951 0.26738226
32.8537 16.558951 0.26738226
35.18147 16.558951 0.26738226
37.50933 16.558951 0.26738226
39.8371 16.558951 0.26738226
42.164959 16.558951 0.26738226
44.48964 16.558951 0.26738226
0.26738226 18.886811 0.26738226
2.5921076 18.886811 0.26738226
4.9199134 18.886811 0.26738226
7.2477282 18.886811 0.26738226
9.5755521 18.886811 0.26738226
11.903322 18.886811 0.26738226
14.231182 18.886811 0.26738226
16.558951 18.886811 0.26738226
18.886811 18.886811 0.26738226
21.214581 18.886811 0.26738226
23.542441 18.886811 0.26738226
25.870211 18.886811 0.26738226
28.198071 18.886811 0.26738226
30.52584 18.886811 0.26738226
32.8537 18.886811 0.26738226
35.18147 18.886811 0.26738226
37.50933 18.886811 0.26738226
39.8371 18.886811 0.26738226
42.164959 18.886811 0.26738226
44.48964 18.886811 0.26738226
0.26738226 21.214581 0.26738226
2.5921076 21.214581 0.26738226
4.9199134 21.214581 0.26738226
7.2477282 21.214581 0.26738226
9.5755521 21.214581 0.26738226
11.903322 21.214581 0.26738226
14.231182 21.214581 0.26738226
16.558951 21.214581 0.26738226
18.886811 21.214581 0.26738226
21.214581 21.214581 0.26738226
23.542441 21.214581 0.26738226
25.870211 21.214581 0.26738226
28.198071 21.214581 0.26738226
30.52584 21.214581 0.26738226
32.8537 21.214581 0.26738226
35.18147 21.214581 0.26738226
37.50933 21.214581 0.26738226
39.8371 21.214581 0.26738226
42.164959 21.214581 0.26738226
44.48964 21.214581 0.26738226
0.26738226 23.542441 0.26738226
2.5921076 23.542441 0.26738226
4.9199134 23.542441 0.26738226
7.2477282 23.542441 0.26738226
9.5755521 23.542441 0.26738226
11.903322 23.542441 0.26738226
14.231182 23.542441 0.26738226
16.558951 23.542441 0.26738226
18.886811 23.542441 0.26738226
21.214581 23.542441 0.26738226
23.542441 23.542441 0.26738226
25.870211 23.542441 0.26738226
28.198071 23.542441 0.26738226
30.52584 23.542441 0.26738226
32.8537 23.542441 0.26738226
35.18147 23.542441 0.26738226
37.50933 23.542441 0.26738226
39.8371 23.542441 0.26738226
42.164959 23.542441 0.26738226
44.48964 23.542441 0.26738226
0.26738226 25.870211 0.26738226
2.5921076 25.870211 0.26738226
4.9199134 25.870211 0.26738226
7.2477282 25.870211 0.26738226
9.5755521 25.870211 0.26738226
11.903322 25.870211 0.26738226
14.231182 25.870211 0.26738226
16.558951 25.870211 0.26738226
18.886811 25.870211 0.26738226
21.214581 25.870211 0.26738226
23.542441 25.870211 0.26738226
25.870211 25.870211 0.26738226
28.198071 25.870211 0.26738226
30.52584 25.870211 0.26738226
32.8537 25.870211 0.26738226
35.18147 25.870211 0.26738226
37.50933 25.870211 0.26738226
39.8371 25.870211 0.26738226
42.164959 25.870211 0.26738226
44.48964 25.870211 0.26738226
0.26738226 28.198071 0.26738226
2.5921076 28.198071 0.26738226
4.9199134 28.198071 0.26738226
7.2477282 28.198071 0.26738226
9.5755521 28.198071 0.26738226
11.903322 28.198071 0.26738226
14.231182 28.198071 0.26738226
16.558951 28.198071 0.26738226
18.886811 28.198071 0.26738226
21.214581 28.198071 0.26738226
23.542441 28.198071 0.26738226
25.870211 28.198071 0.26738226
28.198071 28.198071 0.26738226
30.52584 28.198071 0.26738226
32.8537 28.198071 0.26738226
35.18147 28.198071 0.26738226
37.50933 28.198071 0.26738226
39.8371 28.198071 0.26738226
42.164959 28.198071 0.26738226
44.48964 28.198071 0.26738226
0.26738226 30.52584 0.26738226
2.5921076 30.52584 0.26738226
4.9199134 30.52584 0.26738226
7.2477282 30.52584 0.26738226
9.5755521 30.52584 0.26738226
11.903322 30.52584 0.26738226
14.231182 30.52584 0.26738226
16.558951 30.52584 0.26738226
18.886811 30.52584 0.26738226
21.214581 30.52584 0.26738226
23.542441 30.52584 0.26738226
25.870211 30.52584 0.26738226
28.198071 30.52584 0.26738226
30.52584 30.52584 0.26738226
32.8537 30.52584 0.26738226
35.18147 30.52584 0.26738226
37.50933 30.52584 0.26738226
39.8371 30.52584 0.26738226
42.164959 30.52584 0.26738226
44.48964 30.52584 0.26738226
0.26738226 32.8537 0.26738226
2.5921076 32.8537 0.26738226
4.9199134 32.8537 0.26738226
7.2477282 32.8537 0.26738226
9.5755521 32.8537 0.26738226
11.903322 32.8537 0.26738226
14.231182 32.8537 0.26738226
16.558951 32.8537 0.26738226
18.886811 32.8537 0.26738226
21.214581 32.8537 0.26738226
23.542441 32.8537 0.26738226
25.870211 32.8537 0.26738226
28.198071 32.8537 0.26738226
30.52584 32.8537 0.26738226
32.8537 32.8537 0.26738226
35.18147 32.8537 0.26738226
37.50933 32.8537 0.26738226
39.8371 32.8537 0.26738226
42.164959 32.8537 0.26738226
44.48964 32.8537 0.26738226
0.26738226 35.18147 0.26738226
2.5921076 35.18147 0.26738226
4.9199134 35.18147 0.26738226
7.2477282 35.18147 0.26738226
9.5755521 35.18147 0.26738226
11.903322 35.18147 0.26738226
14.231182 35.18147 0.26738226
16.558951 35.18147 0.26738226
18.886811 35.18147 0.26738226
21.214581 35.18147 0.26738226
23.542441 35.18147 0.26738226
25.870211 35.18147 0.26738226
28.198071 35.18147 0.26738226
30.52584 35.18147 0.26738226
32.8537 35.18147 0.26738226
35.18147 35.18147 0.26738226
37.50933 35.18147 0.26738226
39.8371 35.18147 0.26738226
42.164959 35.18147 0.26738226
44.48964 35.18147 0.26738226
0.26738226 37.50933 0.26738226
2.5921076 37.50933 0.26738226
4.9199134 37.50933 0.26738226
7.2477282 37.50933 0.26738226
[...]
POINT_DATA 3000
SCALARS m double
LOOKUP_TABLE default
1
1
1
1
1
1
1
1
1
1
1
1
1
1
1
1
1
1
1
1
1
1
1
1
1
1
1
1
1
1
1
1
1
1
1
1
1
1
1
1
1
1
1
1
1
1
1
1
1
1
1
1
1
1
1
1
1
1
1
1
1
1
1
1
1
1
1
1
1
1
1
1
1
1
1
1
1
1
1
1
1
1
1
1
1
1
1
1
1
1
1
1
1
1
1
1
1
1
1
1
1
1
1
1
1
1
1
1
1
1
1
1
1
1
1
1
1
1
1
1
1
1
1
1
1
1
1
1
1
1
1
1
1
1
1
1
1
1
1
1
1
1
1
1
1
1
1
1
1
1
1
1
1
1
1
1
1
1
1
1
1
1
1
1
1
1
1
1
1
1
1
1
1
1
1
1
1
1
1
1
1
1
1
1
1
1
1
1
1
1
1
1
1
1
1
1
1
1
1
1
1
1
1
1
1
1
1
1
1
1
1
1
1
1
1
1
1
1
1
1
1
1
1
1
1
1
1
1
1
1
1
1
1
1
1
1
1
1
1
1
1
1
1
1
1
1
1
1
1
1
1
1
1
1
1
1
1
1
1
1
1
1
1
1
1
1
1
1
1
1
1
1
1
1
1
1
1
1
1
1
1
1
1
1
1
1
1
1
1
1
1
1
1
1
1
1
1
1
1
1
1
1
1
1
1
1
1
1
1
1
1
1
1
1
1
1
1
1
1
1
1
1
1
1
1
1
1
1
1
1
1
1
1
1
1
1
1
1
1
1
1
1
1
1
1
1
1
1
1
1
1
1
1
1
1
1
1
1
1
1
1
1
1
1
1
1
1
1
1
1
1
1
1
1
1
1
1
1
1
1
1
1
1
1
1
1
1
1
1
1
1
1
1
1
1
1
1
1
1
1
1
1
1
1
1
1
1
1
1
1
1
1
1
1
1
1
1
1
1
1
1
1
1
1
1
1
1
1
1
1
1
1
1
1
1
1
1
1
1
1
1
1
1
1
1
1
1
1
1
1
1
1
1
1
1
1
1
1
1
1
1
1
1
1
1
1
1
1
1
1
1
1
1
1
1
1
1
1
1
1
1
1
1
1
1
1
1
1
1
1
1
1
1
1
1
1
1
1
1
1
1
1
1
1
1
1
1
1
1
1
1
1
1
1
1
1
1
1
1
1
1
1
1
1
1
1
1
1
1
1
1
1
1
1
1
1
1
1
1
1
1
1
1
1
1
1
1
1
1
1
1
1
1
1
1
1
1
1
1
1
1
1
1
1
1
1
1
1
1
1
1
1
1
1
1
1
1
1
1
1
1
1
1
1
1
1
1
1
1
1
1
1
1
1
1
1
1
1
1
1
1
1
1
1
1
1
1
1
1
1
1
1
1
1
1
1
1
1
1
1
1
1
1
1
1
1
1
1
1
1
1
1
1
1
1
1
1
1
1
1
1
1
1
1
1
1
1
1
1
1
1
1
1
1
1
1
1
1
1
1
1
1
1
1
1
1
1
1
1
1
1
1
1
1
1
1
1
1
1
1
1
1
1
1
1
1
1
1
1
1
1
1
1
1
1
1
1
1
1
1
1
1
1
1
1
1
1
1
1
1
1
1
1
1
1
1
1
1
1
1
1
1
1
1
1
1
1
1
1
1
1
1
1
1
1
1
1
1
1
1
1
1
1
1
1
1
1
1
1
1
1
1
1
1
1
1
1
1
1
1
1
1
1
1
1
1
1
1
1
1
1
1
1
1
1
1
1
1
1
1
1
1
1
1
1
1
1
1
1
1
1
1
1
1
1
1
1
1
1
1
1
1
1
1
1
1
1
1
1
1
1
1
1
1
1
1
1
1
1
1
1
1
1
1
1
1
1
1
1
1
1
1
1
1
1
1
1
1
1
1
1
1
1
1
1
1
1
1
1
1
1
1
1
1
1
1
1
1
1
1
1
1
1
1
1
1
1
1
1
1
1
1
1
1
1
1
1
1
1
1
1
1
1
1
1
1
1
1
1
1
1
1
1
1
1
1
1
1
1
1
1
1
1
1
1
1
1
1
1
1
1
1
1
1
1
1
1
1
1
1
1
1
1
1
1
1
1
1
1
1
1
1
1
1
1
1
1
1
1
1
1
1
1
1
1
1
1
1
1
1
1
1
1
1
1
1
1
1
1
1
1
1
1
1
1
1
1
1
1
1
1
1
1
1
1
1
1
1
1
1
1
1
1
1
1
1
1
1
1
1
1
1
1
1
1
1
1
1
1
1
1
1
1
1
1
1
1
1
1
1
1
1
1
1
1
1
1
1
1
1
1
1
1
1
1
1
1
1
1
1
1
1
1
1
1
1
1
1
1
1
1
1
1
1
1
1
1
1
1
1
1
1
1
1
1
1
1
1
1
1
1
1
1
1
1
1
1
1
1
1
1
1
1
1
1
1
1
1
1
1
1
1
1
1
1
1
1
1
1
1
1
1
1
1
1
1
1
1
1
1
1
1
1
1
1
1
1
1
1
1
1
1
1
1
1
1
1
1
1
1
1
1
1
1
1
1
1
1
1
1
1
1
1
1
1
1
1
1
1
1
1
1
1
1
1
1
1
1
1
1
1
1
1
1
1
1
1
1
1
1
1
1
1
1
1
1
1
1
1
1
1
1
1
1
1
1
1
1
1
1
1
1
1
1
1
1
1
1
1
1
1
1
1
1
1
1
1
1
1
1
1
1
1
1
1
1
1
1
1
1
1
1
1
1
1
1
1
1
1
1
1
1
1
1
1
1
1
1
1
1
1
1
1
1
1
1
1
1
1
1
1
1
1
1
1
1
1
1
1
1
1
1
1
1
1
1
1
1
1
1
1
1
1
1
1
1
1
1
1
1
1
1
1
1
1
1
1
1
1
1
1
1
1
1
1
1
1
1
1
1
1
1
1
1
1
1
1
1
1
1
1
1
1
1
1
1
1
1
1
1
1
1
1
1
1
1
1
1
1
1
1
1
1
1
1
1
1
1
1
1
1
1
1
1
1
1
1
1
1
1
1
1
1
1
1
1
1
1
1
1
1
1
1
1
1
1
1
1
1
1
1
1
1
1
1
1
1
1
1
1
1
1
1
1
1
1
1
1
1
1
1
1
1
1
1
1
1
1
1
1
1
1
1
1
1
1
1
1
1
1
1
1
1
1
1
1
1
1
1
1
1
1
1
1
1
1
1
1
1
1
1
1
1
1
1
1
1
1
1
1
1
1
1
1
1
1
1
1
1
1
1
1
1
1
1
1
1
1
1
1
1
1
1
1
1
1
1
1
1
1
1
1
1
1
1
1
1
1
1
1
1
1
1
1
1
1
1
1
1
1
1
1
1
1
1
1
1
1
1
1
1
1
1
1
1
1
1
1
1
1
1
1
1
1
1
1
1
1
1
1
1
1
1
1
1
1
1
1
1
1
1
1
1
1
1
1
1
1
1
1
1
1
1
1
1
1
1
1
1
1
1
1
1
1
1
1
1
1
1
1
1
1
1
1
1
1
1
1
1
1
1
1
1
1
1
1
1
1
1
1
1
1
1
1
1
1
1
1
1
1
1
1
1
1
1
1
1
1
1
1
1
1
1
1
1
1
1
1
1
1
1
1
1
1
1
1
1
1
1
1
1
1
1
1
1
1
1
1
1
1
1
1
1
1
1
1
1
1
1
1
1
1
1
1
1
1
1
1
1
1
1
1
1
1
1
1
1
1
1
1
1
1
1
1
1
1
1
1
1
1
1
1
1
1
1
1
1
1
1
1
1
1
1
1
1
1
1
1
1
1
1
1
1
1
1
1
1
1
1
1
1
1
1
1
1
1
1
1
1
1
1
1
1
1
1
1
1
1
1
1
1
1
1
1
1
1
1
1
1
1
1
1
1
1
1
1
1
1
1
1
1
1
1
1
1
1
1
1
1
1
1
1
1
1
1
1
1
1
1
1
1
1
1
1
1
1
1
1
1
1
1
1
1
1
1
1
1
1
1
1
1
1
1
1
1
1
1
1
1
1
1
1
1
1
1
1
1
1
1
1
1
1
1
1
1
1
1
1
1
1
1
1
1
1
1
1
1
1
1
1
1
1
1
1
1
1
1
1
1
1
1
1
1
1
1
1
1
1
1
1
1
1
1
1
1
1
1
1
1
1
1
1
1
1
1
1
1
1
1
1
1
1
1
1
1
1
1
1
1
1
1
1
1
1
1
1
1
1
1
1
1
1
1
1
1
1
1
1
1
1
1
1
1
1
1
1
1
1
1
1
1
1
1
1
1
1
1
1
1
1
1
1
1
1
1
1
1
1
1
1
1
1
1
1
1
1
1
1
1
1
1
1
1
1
1
1
1
1
1
1
1
1
1
1
1
1
1
1
1
1
1
1
1
1
1
1
1
1
1
1
1
1
1
1
1
1
1
1
1
1
1
1
1
1
1
1
1
1
1
1
1
1
1
1
1
1
1
1
1
1
1
1
1
1
1
1
1
1
1
1
1
1
1
1
1
1
1
1
1
1
1
1
1
1
1
1
1
1
1
1
1
1
1
1
1
1
1
1
1
1
1
1
1
1
1
1
1
1
1
1
1
1
1
1
1
1
1
1
1
1
1
1
1
1
1
1
1
1
1
1
1
1
1
1
1
1
1
1
1
1
1
1
1
1
1
1
1
1
1
1
1
1
1
1
1
1
1
1
1
1
1
1
1
1
1
1
1
1
1
1
1
1
1
1
1
1
1
1
1
1
1
1
1
1
1
1
1
1
1
1
1
1
1
1
1
1
1
1
1
1
1
1
1
1
1
1
1
1
1
1
1
1
1
1
1
1
1
1
1
1
1
1
1
1
1
1
1
1
1
1
1
1
1
1
1
1
1
1
1
1
1
1
1
1
1
1
1
1
1
1
1
1
1
1
1
1
1
1
1
1
1
1
1
1
1
1
1
1
1
1
1
1
1
1
1
1
1
1
1
1
1
1
1
1
1
1
1
1
1
1
1
1
1
1
1
1
1
1
1
1
1
1
1
1
1
1
1
1
1
1
1
1
1
1
1
1
1
1
1
1
1
1
1
1
1
1
1
1
1
1
1
1
1
1
1
1
1
1
1
1
1
1
1
1
1
1
1
1
1
1
1
1
1
1
1
1
1
1
1
1
1
1
1
1
1
1
1
1
1
1
1
1
1
1
1
1
1
1
1
1
1
1
1
1
1
1
1
1
1
1
1
1
1
1
1
1
1
1
1
1
1
1
1
1
1
1
1
1
1
1
1
1
1
1
1
1
1
1
1
1
1
1
1
1
1
1
1
1
1
1
1
1
1
1
1
1
1
1
1
1
1
1
1
1
1
1
1
1
1
1
1
1
1
1
1
1
1
1
1
1
1
1
1
1
1
1
1
1
1
1
1
1
1
1
1
1
1
1
1
1
1
1
1
1
1
1
1
1
1
1
1
1
1
1
1
1
1
1
1
1
1
1
1
1
1
1
1
1
1
1
1
1
1
1
1
1
1
1
1
1
1
1
1
1
1
1
1
1
1
1
1
1
1
1
1
1
1
1
1
1
1
1
1
1
1
1
1
1
1
1
1
1
1
1
1
1
1
1
1
1
1
1
1
1
1
1
1
1
1
1
1
1
1
1
1
1
1
1
1
1
1
1
1
1
1
1
1
1
1
1
1
1
1
1
1
1
1
1
1
1
1
1
1
1
1
1
1
1
1
1
1
1
1
1
1
1
1
1
1
1
1
1
1
1
1
1
1
1
1
1
1
1
1
1
1
1
1
1
1
1
1
1
1
1
1
1
1
1
1
1
1
1
1
1
1
1
1
1
1
1
1
1
1
1
1
1
1
1
1
1
1
1
1
1
1
1
1
1
1
1
1
1
1
1
1
1
1
1
1
1
1
1
1
1
1
1
1
1
1
1
1
1
1
1
1
1
1
1
1
1
1
1
1
1
1
1
1
1
1
1
1
1
1
1
1
1
1
1
1
1
1
1
1
1
1
1
1
1
1
1
1
1
1
1
1
1
1
1
1
1
1
1
1
1
1
1
1
1
1
1
1
1
1
1
1
1
1
1
1
1
1
1
1
1
1
1
1
1
1
1
1
1
1
1
1
1
1
1
1
1
1
1
1
1
1
1
1
1
1
1
1
1
1
1
1
1
1
1
1
1
1
1
1
1
1
1
1
1
1
1
1
1
1
1
1
1
1
1
1
1
1
1
1
1
1
1
1
1
1
1
1
1
1
1
1
1
1
1
1
1
1
1
1
1
1
1
1
1
1
1
1
1
1
1
1
1
1
1
1
1
1
1
1
1
1
1
1
1
1
1
1
1
1
1
1
1
1
1
1
1
1
1
1
1
1
1
1
1
1
1
1
1
1
1
1
1
1
1
1
1
1
1
1
1
1
1
1
1
1
1
1
1
1
1
1
1
1
1
1
1
1
1
1
1
1
1
1
1
1
1
1
1
1
1
1
1
1
1
1
1
1
1
1
1
1
1
1
1
1
1
1
1
1
1
1
1
1
1
1
1
1
1
1
1
1
1
1
1
1
1
1
1
1
1
1
1
1
1
1
1
1
1
1
1
1
1
1
1
1
1
1
1
1
1
1
1
1
1
1
1
1
1
1
1
1
1
1
1
1
1
1
1
1
1
1
1
1
1
1
1
1
1
1
1
1
1
1
1
1
1
1
1
1
1
1
1
1
1
1
1
1
1
1
1
1
1
1
1
1
1
1
1
1
1
1
1
1
1
1
1
1
1
1
1
1
1
1
1
1
1
VECTORS v double
-1.0355392 -1.0355392 -1.0355392
-2.1520684 -1.0355392 -1.0355392
-3.2621977 -1.0355392 -1.0355392
-4.3723314 -1.0355392 -1.0355392
-5.4824694 -1.0355392 -1.0355392
-6.5925815 -1.0355392 -1.0355392
-7.7027367 -1.0355392 -1.0355392
-8.8128488 -1.0355392 -1.0355392
-9.923004 -1.0355392 -1.0355392
-11.033116 -1.0355392 -1.0355392
-12.143271 -1.0355392 -1.0355392
-13.253384 -1.0355392 -1.0355392
-14.363539 -1.0355392 -1.0355392
-15.473651 -1.0355392 -1.0355392
-16.583806 -1.0355392 -1.0355392
-17.693918 -1.0355392 -1.0355392
-18.804073 -1.0355392 -1.0355392
-19.914186 -1.0355392 -1.0355392
-21.024341 -1.0355392 -1.0355392
-22.140848 -1.0355392 -1.0355392
-1.0355392 -2.1520684 -1.0355392
-2.1520684 -2.1520684 -1.0355392
-3.2621977 -2.1520684 -1.0355392
-4.3723314 -2.1520684 -1.0355392
-5.4824694 -2.1520684 -1.0355392
-6.5925815 -2.1520684 -1.0355392
-7.7027367 -2.1520684 -1.0355392
-8.8128488 -2.1520684 -1.0355392
-9.923004 -2.1520684 -1.0355392
-11.033116 -2.1520684 -1.0355392
-12.143271 -2.1520684 -1.0355392
-13.253384 -2.1520684 -1.0355392
-14.363539 -2.1520684 -1.0355392
-15.473651 -2.1520684 -1.0355392
-16.583806 -2.1520684 -1.0355392
-17.693918 -2.1520684 -1.0355392
-18.804073 -2.1520684 -1.0355392
-19.914186 -2.1520684 -1.0355392
-21.024341 -2.1520684 -1.0355392
-22.140848 -2.1520684 -1.0355392
-1.0355392 -3.2621977 -1.0355392
-2.1520684 -3.2621977 -1.0355392
-3.2621977 -3.2621977 -1.0355392
-4.3723314 -3.2621977 -1.0355392
-5.4824694 -3.2621977 -1.0355392
-6.5925815 -3.2621977 -1.0355392
-7.7027367 -3.2621977 -1.0355392
-8.8128488 -3.2621977 -1.0355392
-9.923004 -3.2621977 -1.0355392
-11.033116 -3.2621977 -1.0355392
-12.143271 -3.2621977 -1.0355392
-13.253384 -3.2621977 -1.0355392
-14.363539 -3.2621977 -1.0355392
-15.473651 -3.2621977 -1.0355392
-16.583806 -3.2621977 -1.0355392
-17.693918 -3.2621977 -1.0355392
-18.804073 -3.2621977 -1.0355392
-19.914186 -3.2621977 -1.0355392
-21.024341 -3.2621977 -1.0355392
-22.140848 -3.2621977 -1.0355392
-1.0355392 -4.3723314 -1.0355392
-2.1520684 -4.3723314 -1.0355392
-3.2621977 -4.3723314 -1.0355392
-4.3723314 -4.3723314 -1.0355392
-5.4824694 -4.3723314 -1.0355392
-6.5925815 -4.3723314 -1.0355392
-7.7027367 -4.3723314 -1.0355392
-8.8128488 -4.3723314 -1.0355392
-9.923004 -4.3723314 -1.0355392
-11.033116 -4.3723314 -1.0355392
-12.143271 -4.3723314 -1.0355392
-13.253384 -4.3723314 -1.0355392
-14.363539 -4.3723314 -1.0355392
-15.473651 -4.3723314 -1.0355392
-16.583806 -4.3723314 -1.0355392
-17.693918 -4.3723314 -1.0355392
-18.804073 -4.3723314 -1.0355392
-19.914186 -4.3723314 -1.0355392
-21.024341 -4.3723314 -1.0355392
-22.140848 -4.3723314 -1.0355392
-1.0355392 -5.4824694 -1.0355392
-2.1520684 -5.4824694 -1.0355392
-3.2621977 -5.4824694 -1.0355392
-4.3723314 -5.4824694 -1.0355392
-5.4824694 -5.4824694 -1.0355392
-6.5925815 -5.4824694 -1.0355392
-7.7027367 -5.4824694 -1.0355392
-8.8128488 -5.4824694 -1.0355392
-9.923004 -5.4824694 -1.0355392
-11.033116 -5.4824694 -1.0355392
-12.143271 -5.4824694 -1.0355392
-13.253384 -5.4824694 -1.0355392
-14.363539 -5.4824694 -1.0355392
-15.473651 -5.4824694 -1.0355392
-16.583806 -5.4824694 -1.0355392
-17.693918 -5.4824694 -1.0355392
-18.804073 -5.4824694 -1.0355392
-19.914186 -5.4824694 -1.0355392
-21.024341 -5.4824694 -1.0355392
-22.140848 -5.4824694 -1.0355392
-1.0355392 -6.5925815 -1.0355392
-2.1520684 -6.5925815 -1.0355392
-3.2621977 -6.5925815 -1.0355392
-4.3723314 -6.5925815 -1.0355392
-5.4824694 -6.5925815 -1.0355392
-6.5925815 -6.5925815 -1.0355392
-7.7027367 -6.5925815 -1.0355392
-8.8128488 -6.5925815 -1.0355392
-9.923004 -6.5925815 -1.0355392
-11.033116 -6.5925815 -1.0355392
-12.143271 -6.5925815 -1.0355392
-13.253384 -6.5925815 -1.0355392
-14.363539 -6.5925815 -1.0355392
-15.473651 -6.5925815 -1.0355392
-16.583806 -6.5925815 -1.0355392
-17.693918 -6.5925815 -1.0355392
-18.804073 -6.5925815 -1.0355392
-19.914186 -6.5925815 -1.0355392
-21.024341 -6.5925815 -1.0355392
-22.140848 -6.5925815 -1.0355392
-1.0355392 -7.7027367 -1.0355392
-2.1520684 -7.7027367 -1.0355392
-3.2621977 -7.7027367 -1.0355392
-4.3723314 -7.7027367 -1.0355392
-5.4824694 -7.7027367 -1.0355392
-6.5925815 -7.7027367 -1.0355392
-7.7027367 -7.7027367 -1.0355392
-8.8128488 -7.7027367 -1.0355392
-9.923004 -7.7027367 -1.0355392
-11.033116 -7.7027367 -1.0355392
-12.143271 -7.7027367 -1.0355392
-13.253384 -7.7027367 -1.0355392
-14.363539 -7.7027367 -1.0355392
-15.473651 -7.7027367 -1.0355392
-16.583806 -7.7027367 -1.0355392
-17.693918 -7.7027367 -1.0355392
-18.804073 -7.7027367 -1.0355392
-19.914186 -7.7027367 -1.0355392
-21.024341 -7.7027367 -1.0355392
-22.140848 -7.7027367 -1.0355392
-1.0355392 -8.8128488 -1.0355392
-2.1520684 -8.8128488 -1.0355392
-3.2621977 -8.8128488 -1.0355392
-4.3723314 -8.8128488 -1.0355392
-5.4824694 -8.8128488 -1.0355392
-6.5925815 -8.8128488 -1.0355392
-7.7027367 -8.8128488 -1.0355392
-8.8128488 -8.8128488 -1.0355392
-9.923004 -8.8128488 -1.0355392
-11.033116 -8.8128488 -1.0355392
-12.143271 -8.8128488 -1.0355392
-13.253384 -8.8128488 -1.0355392
-14.363539 -8.8128488 -1.0355392
-15.473651 -8.8128488 -1.0355392
-16.583806 -8.8128488 -1.0355392
-17.693918 -8.8128488 -1.0355392
-18.804073 -8.8128488 -1.0355392
-19.914186 -8.8128488 -1.0355392
-21.024341 -8.8128488 -1.0355392
-22.140848 -8.8128488 -1.0355392
-1.0355392 -9.923004 -1.0355392
-2.1520684 -9.923004 -1.0355392
-3.2621977 -9.923004 -1.0355392
-4.3723314 -9.923004 -1.0355392
-5.4824694 -9.923004 -1.0355392
-6.5925815 -9.923004 -1.0355392
-7.7027367 -9.923004 -1.0355392
-8.8128488 -9.923004 -1.0355392
-9.923004 -9.923004 -1.0355392
-11.033116 -9.923004 -1.0355392
-12.143271 -9.923004 -1.0355392
-13.253384 -9.923004 -1.0355392
-14.363539 -9.923004 -1.0355392
-15.473651 -9.923004 -1.0355392
-16.583806 -9.923004 -1.0355392
-17.693918 -9.923004 -1.0355392
-18.804073 -9.923004 -1.0355392
-19.914186 -9.923004 -1.0355392
-21.024341 -9.923004 -1.0355392
-22.140848 -9.923004 -1.0355392
-1.0355392 -11.033116 -1.0355392
-2.1520684 -11.033116 -1.0355392
-3.2621977 -11.033116 -1.0355392
-4.3723314 -11.033116 -1.0355392
-5.4824694 -11.033116 -1.0355392
-6.5925815 -11.033116 -1.0355392
-7.7027367 -11.033116 -1.0355392
-8.8128488 -11.033116 -1.0355392
-9.923004 -11.033116 -1.0355392
-11.033116 -11.033116 -1.0355392
-12.143271 -11.033116 -1.0355392
-13.253384 -11.033116 -1.0355392
-14.363539 -11.033116 -1.0355392
-15.473651 -11.033116 -1.0355392
-16.583806 -11.033116 -1.0355392
-17.693918 -11.033116 -1.0355392
-18.804073 -11.033116 -1.0355392
-19.914186 -11.033116 -1.0355392
-21.024341 -11.033116 -1.0355392
-22.140848 -11.033116 -1.0355392
-1.0355392 -12.143271 -1.0355392
-2.1520684 -12.143271 -1.0355392
-3.2621977 -12.143271 -1.0355392
-4.3723314 -12.143271 -1.0355392
-5.4824694 -12.143271 -1.0355392
-6.5925815 -12.143271 -1.0355392
-7.7027367 -12.143271 -1.0355392
-8.8128488 -12.143271 -1.0355392
-9.923004 -12.143271 -1.0355392
-11.033116 -12.143271 -1.0355392
-12.143271 -12.143271 -1.0355392
-13.253384 -12.143271 -1.0355392
-14.363539 -12.143271 -1.0355392
-15.473651 -12.143271 -1.0355392
-16.583806 -12.143271 -1.0355392
-17.693918 -12.143271 -1.0355392
-18.804073 -12.143271 -1.0355392
-19.914186 -12.143271 -1.0355392
-21.024341 -12.143271 -1.0355392
-22.140848 -12.143271 -1.0355392
-1.0355392 -13.253384 -1.0355392
-2.1520684 -13.253384 -1.0355392
-3.2621977 -13.253384 -1.0355392
-4.3723314 -13.253384 -1.0355392
-5.4824694 -13.253384 -1.0355392
-6.5925815 -13.253384 -1.0355392
-7.7027367 -13.253384 -1.0355392
-8.8128488 -13.253384 -1.0355392
-9.923004 -13.253384 -1.0355392
-11.033116 -13.253384 -1.0355392
-12.143271 -13.253384 -1.0355392
-13.253384 -13.253384 -1.0355392
-14.363539 -13.253384 -1.0355392
-15.473651 -13.253384 -1.0355392
-16.583806 -13.253384 -1.0355392
-17.693918 -13.253384 -1.0355392
-18.804073 -13.253384 -1.0355392
-19.914186 -13.253384 -1.0355392
-21.024341 -13.253384 -1.0355392
-22.140848 -13.253384 -1.0355392
-1.0355392 -14.363539 -1.0355392
-2.1520684 -14.363539 -1.0355392
-3.2621977 -14.363539 -1.0355392
-4.3723314 -14.363539 -1.0355392
-5.4824694 -14.363539 -1.0355392
-6.5925815 -14.363539 -1.0355392
-7.7027367 -14.363539 -1.0355392
-8.8128488 -14.363539 -1.0355392
-9.923004 -14.363539 -1.0355392
-11.033116 -14.363539 -1.0355392
-12.143271 -14.363539 -1.0355392
-13.253384 -14.363539 -1.0355392
-14.363539 -14.363539 -1.0355392
-15.473651 -14.363539 -1.0355392
-16.583806 -14.363539 -1.0355392
-17.693918 -14.363539 -1.0355392
-18.804073 -14.363539 -1.0355392
-19.914186 -14.363539 -1.0355392
-21.024341 -14.363539 -1.0355392
-22.140848 -14.363539 -1.0355392
-1.0355392 -15.473651 -1.0355392
-2.1520684 -15.473651 -1.0355392
-3.2621977 -15.473651 -1.0355392
-4.3723314 -15.473651 -1.0355392
-5.4824694 -15.473651 -1.0355392
-6.5925815 -15.473651 -1.0355392
-7.7027367 -15.473651 -1.0355392
-8.8128488 -15.473651 -1.0355392
-9.923004 -15.473651 -1.0355392
-11.033116 -15.473651 -1.0355392
-12.143271 -15.473651 -1.0355392
-13.253384 -15.473651 -1.0355392
-14.363539 -15.473651 -1.0355392
-15.473651 -15.473651 -1.0355392
-16.583806 -15.473651 -1.0355392
-17.693918 -15.473651 -1.0355392
-18.804073 -15.473651 -1.0355392
-19.914186 -15.473651 -1.0355392
-21.024341 -15.473651 -1.0355392
-22.140848 -15.473651 -1.0355392
-1.0355392 -16.583806 -1.0355392
-2.1520684 -16.583806 -1.0355392
-3.2621977 -16.583806 -1.0355392
-4.3723314 -16.583806 -1.0355392
-5.4824694 -16.583806 -1.0355392
-6.5925815 -16.583806 -1.0355392
-7.7027367 -16.583806 -1.0355392
-8.8128488 -16.583806 -1.0355392
-9.923004 -16.583806 -1.0355392
-11.033116 -16.583806 -1.0355392
-12.143271 -16.583806 -1.0355392
-13.253384 -16.583806 -1.0355392
-14.363539 -16.583806 -1.0355392
-15.473651 -16.583806 -1.0355392
-16.583806 -16.583806 -1.0355392
-17.693918 -16.583806 -1.0355392
-18.804073 -16.583806 -1.0355392
-19.914186 -16.583806 -1.0355392
-21.024341 -16.583806 -1.0355392
-22.140848 -16.583806 -1.0355392
-1.0355392 -17.693918 -1.0355392
-2.1520684 -17.693918 -1.0355392
-3.2621977 -17.693918 -1.0355392
-4.3723314 -17.693918 -1.0355392
-5.4824694 -17.693918 -1.0355392
-6.5925815 -17.693918 -1.0355392
-7.7027367 -17.693918 -1.0355392
-8.8128488 -17.693918 -1.0355392
-9.923004 -17.693918 -1.0355392
-11.033116 -17.693918 -1.0355392
-12.143271 -17.693918 -1.0355392
-13.253384 -17.693918 -1.0355392
-14.363539 -17.693918 -1.0355392
-15.473651 -17.693918 -1.0355392
-16.583806 -17.693918 -1.0355392
-17.693918 -17.693918 -1.0355392
-18.804073 -17.693918 -1.0355392
-19.914186 -17.693918 -1.0355392
-21.024341 -17.693918 -1.0355392
-22.140848 -17.693918 -1.0355392
-1.0355392 -18.804073 -1.0355392
-2.1520684 -18.804073 -1.0355392
-3.2621977 -18.804073 -1.0355392
-4.3723314 -18.804073 -1.0355392
-5.4824694 -18.804073 -1.0355392
-6.5925815 -18.804073 -1.0355392
-7.7027367 -18.804073 -1.0355392
-8.8128488 -18.804073 -1.0355392
-9.923004 -18.804073 -1.0355392
-11.033116 -18.804073 -1.0355392
-12.143271 -18.804073 -1.0355392
-13.253384 -18.804073 -1.0355392
-14.363539 -18.804073 -1.0355392
-15.473651 -18.804073 -1.0355392
-16.583806 -18.804073 -1.0355392
-17.693918 -18.804073 -1.0355392
-18.804073 -18.804073 -1.0355392
-19.914186 -18.804073 -1.0355392
-21.024341 -18.804073 -1.0355392
-22.140848 -18.804073 -1.0355392
-1.0355392 -19.914186 -1.0355392
-2.1520684 -19.914186 -1.0355392
-3.2621977 -19.914186 -1.0355392
-4.3723314 -19.914186 -1.0355392
-5.4824694 -19.914186 -1.0355392
-6.5925815 -19.914186 -1.0355392
-7.7027367 -19.914186 -1.0355392
-8.8128488 -19.914186 -1.0355392
-9.923004 -19.914186 -1.0355392
-11.033116 -19.914186 -1.0355392
-12.143271 -19.914186 -1.0355392
-13.253384 -19.914186 -1.0355392
-14.363539 -19.914186 -1.0355392
-15.473651 -19.914186 -1.0355392
-16.583806 -19.914186 -1.0355392
-17.693918 -19.914186 -1.0355392
-18.804073 -19.914186 -1.0355392
-19.914186 -19.914186 -1.0355392
-21.024341 -19.914186 -1.0355392
-22.140848 -19.914186 -1.0355392
-1.0355392 -21.024341 -1.0355392
-2.1520684 -21.024341 -1.0355392
-3.2621977 -21.024341 -1.0355392
-4.3723314 -21.024341 -1.0355392
-5.4824694 -21.024341 -1.0355392
-6.5925815 -21.024341 -1.0355392
-7.7027367 -21.024341 -1.0355392
-8.8128488 -21.024341 -1.0355392
-9.923004 -21.024341 -1.0355392
-11.033116 -21.024341 -1.0355392
-12.143271 -21.024341 -1.0355392
-13.253384 -21.024341 -1.0355392
-14.363539 -21.024341 -1.0355392
-15.473651 -21.024341 -1.0355392
-16.583806 -21.024341 -1.0355392
-17.693918 -21.024341 -1.0355392
-18.804073 -21.024341 -1.0355392
-19.914186 -21.024341 -1.0355392
-21.024341 -21.024341 -1.0355392
-22.140848 -21.024341 -1.0355392
-1.0355392 -22.140848 -1.0355392
-2.1520684 -22.140848 -1.0355392
-3.2621977 -22.140848 -1.0355392
-4.3723314 -22.140848 -1.0355392
-5.4824694 -22.140848 -1.0355392
-6.5925815 -22.140848 -1.0355392
-7.7027367 -22.140848 -1.0355392
-8.8128488 -22.140848 -1.0355392
-9.923004 -22.140848 -1.0355392
-11.033116 -22.140848 -1.0355392
-12.143271 -22.140848 -1.0355392
-13.253384 -22.140848 -1.0355392
-14.363539 -22.140848 -1.0355392
-15.473651 -22.140848 -1.0355392
-16.583806 -22.140848 -1.0355392
-17.693918 -22.140848 -1.0355392
-18.804073 -22.140848 -1.0355392
-19.914186 -22.140848 -1.0355392
-21.024341 -22.140848 -1.0355392
-22.140848 -22.140848 -1.0355392
-1.0355392 -1.0355392 -2.1520684
-2.1520684 -1.0355392 -2.1520684
-3.2621977 -1.0355392 -2.1520684
-4.3723314 -1.0355392 -2.1520684
-5.4824694 -1.0355392 -2.1520684
-6.5925815 -1.0355392 -2.1520684
-7.7027367 -1.0355392 -2.1520684
-8.8128488 -1.0355392 -2.1520684
-9.923004 -1.0355392 -2.1520684
-11.033116 -1.0355392 -2.1520684
-12.143271 -1.0355392 -2.1520684
-13.253384 -1.0355392 -2.1520684
-14.363539 -1.0355392 -2.1520684
-15.473651 -1.0355392 -2.1520684
-16.583806 -1.0355392 -2.1520684
-17.693918 -1.0355392 -2.1520684
-18.804073 -1.0355392 -2.1520684
-19.914186 -1.0355392 -2.1520684
-21.024341 -1.0355392 -2.1520684
-22.140848 -1.0355392 -2.1520684
-1.0355392 -2.1520684 -2.1520684
-2.1520684 -2.1520684 -2.1520684
-3.2621977 -2.1520684 -2.1520684