# vtk DataFile Version 4.0
hesp visualization file
ASCII
DATASET UNSTRUCTURED_GRID
POINTS 3000 double
0.22422095 0.22422095 0.22422095
2.5024368 0.22422095 0.22422095
4.7839865 0.22422095 0.22422095
7.065545 0.22422095 0.22422095
9.3471124 0.22422095 0.22422095
11.628627 0.22422095 0.22422095
13.91023 0.22422095 0.22422095
16.191744 0.22422095 0.22422095
18.473347 0.22422095 0.22422095
20.754861 0.22422095 0.22422095
23.036464 0.22422095 0.22422095
25.317978 0.22422095 0.22422095
27.599581 0.22422095 0.22422095
29.881095 0.22422095 0.22422095
32.162698 0.22422095 0.22422095
34.444212 0.22422095 0.22422095
36.725815 0.22422095 0.22422095
39.007329 0.22422095 0.22422095
41.288932 0.22422095 0.22422095
43.567104 0.22422095 0.22422095
0.22422095 2.5024368 0.22422095
2.5024368 2.5024368 0.22422095
4.7839865 2.5024368 0.22422095
7.065545 2.5024368 0.22422095
9.3471124 2.5024368 0.22422095
11.628627 2.5024368 0.22422095
13.91023 2.5024368 0.22422095
16.191744 2.5024368 0.22422095
18.473347 2.5024368 0.22422095
20.754861 2.5024368 0.22422095
23.036464 2.5024368 0.22422095
25.317978 2.5024368 0.22422095
27.599581 2.5024368 0.22422095
29.881095 2.5024368 0.22422095
32.162698 2.5024368 0.22422095
34.444212 2.5024368 0.22422095
36.725815 2.5024368 0.22422095
39.007329 2.5024368 0.22422095
41.288932 2.5024368 0.22422095
43.567104 2.5024368 0.22422095
0.22422095 4.7839865 0.22422095
2.5024368 4.7839865 0.22422095
4.7839865 4.7839865 0.22422095
7.065545 4.7839865 0.22422095
9.3471124 4.7839865 0.22422095
11.628627 4.7839865 0.22422095
13.91023 4.7839865 0.22422095
16.191744 4.7839865 0.22422095
18.473347 4.7839865 0.22422095
20.754861 4.7839865 0.22422095
23.036464 4.7839865 0.22422095
25.317978 4.7839865 0.22422095
27.599581 4.7839865 0.22422095
29.881095 4.7839865 0.22422095
32.162698 4.7839865 0.22422095
34.444212 4.7839865 0.22422095
36.725815 4.7839865 0.22422095
39.007329 4.7839865 0.22422095
41.288932 4.7839865 0.22422095
43.567104 4.7839865 0.22422095
0.22422095 7.065545 0.22422095
2.5024368 7.065545 0.22422095
4.7839865 7.065545 0.22422095
7.065545 7.065545 0.22422095
9.3471124 7.065545 0.22422095
11.628627 7.065545 0.22422095
13.91023 7.065545 0.22422095
16.191744 7.065545 0.22422095
18.473347 7.065545 0.22422095
20.754861 7.065545 0.22422095
23.036464 7.065545 0.22422095
25.317978 7.065545 0.22422095
27.599581 7.065545 0.22422095
29.881095 7.065545 0.22422095
32.162698 7.065545 0.22422095
34.444212 7.065545 0.22422095
36.725815 7.065545 0.22422095
39.007329 7.065545 0.22422095
41.288932 7.065545 0.22422095
43.567104 7.065545 0.22422095
0.22422095 9.3471124 0.22422095
2.5024368 9.3471124 0.22422095
4.7839865 9.3471124 0.22422095
7.065545 9.3471124 0.22422095
9.3471124 9.3471124 0.22422095
11.628627 9.3471124 0.22422095
13.91023 9.3471124 0.22422095
16.191744 9.3471124 0.22422095
18.473347 9.3471124 0.22422095
20.754861 9.3471124 0.22422095
23.036464 9.3471124 0.22422095
25.317978 9.3471124 0.22422095
27.599581 9.3471124 0.22422095
29.881095 9.3471124 0.22422095
32.162698 9.3471124 0.22422095
34.444212 9.3471124 0.22422095
36.725815 9.3471124 0.22422095
39.007329 9.3471124 0.22422095
41.288932 9.3471124 0.22422095
43.567104 9.3471124 0.22422095
0.22422095 11.628627 0.22422095
2.5024368 11.628627 0.22422095
4.7839865 11.628627 0.22422095
7.065545 11.628627 0.22422095
9.3471124 11.628627 0.22422095
11.628627 11.628627 0.22422095
13.91023 11.628627 0.22422095
16.191744 11.628627 0.22422095
18.473347 11.628627 0.22422095
20.754861 11.628627 0.22422095
23.036464 11.628627 0.22422095
25.317978 11.628627 0.22422095
27.599581 11.628627 0.22422095
29.881095 11.628627 0.22422095
32.162698 11.628627 0.22422095
34.444212 11.628627 0.22422095
36.725815 11.628627 0.22422095
39.007329 11.628627 0.22422095
41.288932 11.628627 0.22422095
43.567104 11.628627 0.22422095
0.22422095 13.91023 0.22422095
2.5024368 13.91023 0.22422095
4.7839865 13.91023 0.22422095
7.065545 13.91023 0.22422095
9.3471124 13.91023 0.22422095
11.628627 13.91023 0.22422095
13.91023 13.91023 0.22422095
16.191744 13.91023 0.22422095
18.473347 13.91023 0.22422095
20.754861 13.91023 0.22422095
23.036464 13.91023 0.22422095
25.317978 13.91023 0.22422095
27.599581 13.91023 0.22422095
29.881095 13.91023 0.22422095
32.162698 13.91023 0.22422095
34.444212 13.91023 0.22422095
36.725815 13.91023 0.22422095
39.007329 13.91023 0.22422095
41.288932 13.91023 0.22422095
43.567104 13.91023 0.22422095
0.22422095 16.191744 0.22422095
2.5024368 16.191744 0.22422095
4.7839865 16.191744 0.22422095
7.065545 16.191744 0.22422095
9.3471124 16.191744 0.22422095
11.628627 16.191744 0.22422095
13.91023 16.191744 0.22422095
16.191744 16.191744 0.22422095
18.473347 16.191744 0.22422095
20.754861 16.191744 0.22422095
23.036464 16.191744 0.22422095
25.317978 16.191744 0.22422095
27.599581 16.191744 0.22422095
29.881095 16.191744 0.22422095
32.162698 16.191744 0.22422095
34.444212 16.191744 0.22422095
36.725815 16.191744 0.22422095
39.007329 16.191744 0.22422095
41.288932 16.191744 0.22422095
43.567104 16.191744 0.22422095
0.22422095 18.473347 0.22422095
2.5024368 18.473347 0.22422095
4.7839865 18.473347 0.22422095
7.065545 18.473347 0.22422095
9.3471124 18.473347 0.22422095
11.628627 18.473347 0.22422095
13.91023 18.473347 0.22422095
16.191744 18.473347 0.22422095
18.473347 18.473347 0.22422095
20.754861 18.473347 0.22422095
23.036464 18.473347 0.22422095
25.317978 18.473347 0.22422095
27.599581 18.473347 0.22422095
29.881095 18.473347 0.22422095
32.162698 18.473347 0.22422095
34.444212 18.473347 0.22422095
36.725815 18.473347 0.22422095
39.007329 18.473347 0.22422095
41.288932 18.473347 0.22422095
43.567104 18.473347 0.22422095
0.22422095 20.754861 0.22422095
2.5024368 20.754861 0.22422095
4.7839865 20.754861 0.22422095
7.065545 20.754861 0.22422095
9.3471124 20.754861 0.22422095
11.628627 20.754861 0.22422095
13.91023 20.754861 0.22422095
16.191744 20.754861 0.22422095
18.473347 20.754861 0.22422095
20.754861 20.754861 0.22422095
23.036464 20.754861 0.22422095
25.317978 20.754861 0.22422095
27.599581 20.754861 0.22422095
29.881095 20.754861 0.22422095
32.162698 20.754861 0.22422095
34.444212 20.754861 0.22422095
36.725815 20.754861 0.22422095
39.007329 20.754861 0.22422095
41.288932 20.754861 0.22422095
43.567104 20.754861 0.22422095
0.22422095 23.036464 0.22422095
2.5024368 23.036464 0.22422095
4.7839865 23.036464 0.22422095
7.065545 23.036464 0.22422095
9.3471124 23.036464 0.22422095
11.628627 23.036464 0.22422095
13.91023 23.036464 0.22422095
16.191744 23.036464 0.22422095
18.473347 23.036464 0.22422095
20.754861 23.036464 0.22422095
23.036464 23.036464 0.22422095
25.317978 23.036464 0.22422095
27.599581 23.036464 0.22422095
29.881095 23.036464 0.22422095
32.162698 23.036464 0.22422095
34.444212 23.036464 0.22422095
36.725815 23.036464 0.22422095
39.007329 23.036464 0.22422095
41.288932 23.036464 0.22422095
43.567104 23.036464 0.22422095
0.22422095 25.317978 0.22422095
2.5024368 25.317978 0.22422095
4.7839865 25.317978 0.22422095
7.065545 25.317978 0.22422095
9.3471124 25.317978 0.22422095
11.628627 25.317978 0.22422095
13.91023 25.317978 0.22422095
16.191744 25.317978 0.22422095
18.473347 25.317978 0.22422095
20.754861 25.317978 0.22422095
23.036464 25.317978 0.22422095
25.317978 25.317978 0.22422095
27.599581 25.317978 0.22422095
29.881095 25.317978 0.22422095
32.162698 25.317978 0.22422095
34.444212 25.317978 0.22422095
36.725815 25.317978 0.22422095
39.007329 25.317978 0.22422095
41.288932 25.317978 0.22422095
43.567104 25.317978 0.22422095
0.22422095 27.599581 0.22422095
2.5024368 27.599581 0.22422095
4.7839865 27.599581 0.22422095
7.065545 27.599581 0.22422095
9.3471124 27.599581 0.22422095
11.628627 27.599581 0.22422095
13.91023 27.599581 0.22422095
16.191744 27.599581 0.22422095
18.473347 27.599581 0.22422095
20.754861 27.599581 0.22422095
23.036464 27.599581 0.22422095
25.317978 27.599581 0.22422095
27.599581 27.599581 0.22422095
29.881095 27.599581 0.22422095
32.162698 27.599581 0.22422095
34.444212 27.599581 0.22422095
36.725815 27.599581 0.22422095
39.007329 27.599581 0.22422095
41.288932 27.599581 0.22422095
43.567104 27.599581 0.22422095
0.22422095 29.881095 0.22422095
2.5024368 29.881095 0.22422095
4.7839865 29.881095 0.22422095
7.065545 29.881095 0.22422095
9.3471124 29.881095 0.22422095
11.628627 29.881095 0.22422095
13.91023 29.881095 0.22422095
16.191744 29.881095 0.22422095
18.473347 29.881095 0.22422095
20.754861 29.881095 0.22422095
23.036464 29.881095 0.22422095
25.317978 29.881095 0.22422095
27.599581 29.881095 0.22422095
29.881095 29.881095 0.22422095
32.162698 29.881095 0.22422095
34.444212 29.881095 0.22422095
36.725815 29.881095 0.22422095
39.007329 29.881095 0.22422095
41.288932 29.881095 0.22422095
43.567104 29.881095 0.22422095
0.22422095 32.162698 0.22422095
2.5024368 32.162698 0.22422095
4.7839865 32.162698 0.22422095
7.065545 32.162698 0.22422095
9.3471124 32.162698 0.22422095
11.628627 32.162698 0.22422095
13.91023 32.162698 0.22422095
16.191744 32.162698 0.22422095
18.473347 32.162698 0.22422095
20.754861 32.162698 0.22422095
23.036464 32.162698 0.22422095
25.317978 32.162698 0.22422095
27.599581 32.162698 0.22422095
29.881095 32.162698 0.22422095
32.162698 32.162698 0.22422095
34.444212 32.162698 0.22422095
36.725815 32.162698 0.22422095
39.007329 32.162698 0.22422095
41.288932 32.162698 0.22422095
43.567104 32.162698 0.22422095
0.22422095 34.444212 0.22422095
2.5024368 34.444212 0.22422095
4.7839865 34.444212 0.22422095
7.065545 34.444212 0.22422095
9.3471124 34.444212 0.22422095
11.628627 34.444212 0.22422095
13.91023 34.444212 0.22422095
16.191744 34.444212 0.22422095
18.473347 34.444212 0.22422095
20.754861 34.444212 0.22422095
23.036464 34.444212 0.22422095
25.317978 34.444212 0.22422095
27.599581 34.444212 0.22422095
29.881095 34.444212 0.22422095
32.162698 34.444212 0.22422095
34.444212 34.444212 0.22422095
36.725815 34.444212 0.22422095
39.007329 34.444212 0.22422095
41.288932 34.444212 0.22422095
43.567104 34.444212 0.22422095
[...]
POINT_DATA 3000
SCALARS m double
LOOKUP_TABLE default
1
1
1
1
1
1
1
1
1
1
1
1
1
1
1
1
1
1
1
1
1
1
1
1
1
1
1
1
1
1
1
1
1
1
1
1
1
1
1
1
1
1
1
1
1
1
1
1
1
1
1
1
1
1
1
1
1
1
1
1
1
1
1
1
1
1
1
1
1
1
1
1
1
1
1
1
1
1
1
1
1
1
1
1
1
1
1
1
1
1
1
1
1
1
1
1
1
1
1
1
1
1
1
1
1
1
1
1
1
1
1
1
1
1
1
1
1
1
1
1
1
1
1
1
1
1
1
1
1
1
1
1
1
1
1
1
1
1
1
1
1
1
1
1
1
1
1
1
1
1
1
1
1
1
1
1
1
1
1
1
1
1
1
1
1
1
1
1
1
1
1
1
1
1
1
1
1
1
1
1
1
1
1
1
1
1
1
1
1
1
1
1
1
1
1
1
1
1
1
1
1
1
1
1
1
1
1
1
1
1
1
1
1
1
1
1
1
1
1
1
1
1
1
1
1
1
1
1
1
1
1
1
1
1
1
1
1
1
1
1
1
1
1
1
1
1
1
1
1
1
1
1
1
1
1
1
1
1
1
1
1
1
1
1
1
1
1
1
1
1
1
1
1
1
1
1
1
1
1
1
1
1
1
1
1
1
1
1
1
1
1
1
1
1
1
1
1
1
1
1
1
1
1
1
1
1
1
1
1
1
1
1
1
1
1
1
1
1
1
1
1
1
1
1
1
1
1
1
1
1
1
1
1
1
1
1
1
1
1
1
1
1
1
1
1
1
1
1
1
1
1
1
1
1
1
1
1
1
1
1
1
1
1
1
1
1
1
1
1
1
1
1
1
1
1
1
1
1
1
1
1
1
1
1
1
1
1
1
1
1
1
1
1
1
1
1
1
1
1
1
1
1
1
1
1
1
1
1
1
1
1
1
1
1
1
1
1
1
1
1
1
1
1
1
1
1
1
1
1
1
1
1
1
1
1
1
1
1
1
1
1
1
1
1
1
1
1
1
1
1
1
1
1
1
1
1
1
1
1
1
1
1
1
1
1
1
1
1
1
1
1
1
1
1
1
1
1
1
1
1
1
1
1
1
1
1
1
1
1
1
1
1
1
1
1
1
1
1
1
1
1
1
1
1
1
1
1
1
1
1
1
1
1
1
1
1
1
1
1
1
1
1
1
1
1
1
1
1
1
1
1
1
1
1
1
1
1
1
1
1
1
1
1
1
1
1
1
1
1
1
1
1
1
1
1
1
1
1
1
1
1
1
1
1
1
1
1
1
1
1
1
1
1
1
1
1
1
1
1
1
1
1
1
1
1
1
1
1
1
1
1
1
1
1
1
1
1
1
1
1
1
1
1
1
1
1
1
1
1
1
1
1
1
1
1
1
1
1
1
1
1
1
1
1
1
1
1
1
1
1
1
1
1
1
1
1
1
1
1
1
1
1
1
1
1
1
1
1
1
1
1
1
1
1
1
1
1
1
1
1
1
1
1
1
1
1
1
1
1
1
1
1
1
1
1
1
1
1
1
1
1
1
1
1
1
1
1
1
1
1
1
1
1
1
1
1
1
1
1
1
1
1
1
1
1
1
1
1
1
1
1
1
1
1
1
1
1
1
1
1
1
1
1
1
1
1
1
1
1
1
1
1
1
1
1
1
1
1
1
1
1
1
1
1
1
1
1
1
1
1
1
1
1
1
1
1
1
1
1
1
1
1
1
1
1
1
1
1
1
1
1
1
1
1
1
1
1
1
1
1
1
1
1
1
1
1
1
1
1
1
1
1
1
1
1
1
1
1
1
1
1
1
1
1
1
1
1
1
1
1
1
1
1
1
1
1
1
1
1
1
1
1
1
1
1
1
1
1
1
1
1
1
1
1
1
1
1
1
1
1
1
1
1
1
1
1
1
1
1
1
1
1
1
1
1
1
1
1
1
1
1
1
1
1
1
1
1
1
1
1
1
1
1
1
1
1
1
1
1
1
1
1
1
1
1
1
1
1
1
1
1
1
1
1
1
1
1
1
1
1
1
1
1
1
1
1
1
1
1
1
1
1
1
1
1
1
1
1
1
1
1
1
1
1
1
1
1
1
1
1
1
1
1
1
1
1
1
1
1
1
1
1
1
1
1
1
1
1
1
1
1
1
1
1
1
1
1
1
1
1
1
1
1
1
1
1
1
1
1
1
1
1
1
1
1
1
1
1
1
1
1
1
1
1
1
1
1
1
1
1
1
1
1
1
1
1
1
1
1
1
1
1
1
1
1
1
1
1
1
1
1
1
1
1
1
1
1
1
1
1
1
1
1
1
1
1
1
1
1
1
1
1
1
1
1
1
1
1
1
1
1
1
1
1
1
1
1
1
1
1
1
1
1
1
1
1
1
1
1
1
1
1
1
1
1
1
1
1
1
1
1
1
1
1
1
1
1
1
1
1
1
1
1
1
1
1
1
1
1
1
1
1
1
1
1
1
1
1
1
1
1
1
1
1
1
1
1
1
1
1
1
1
1
1
1
1
1
1
1
1
1
1
1
1
1
1
1
1
1
1
1
1
1
1
1
1
1
1
1
1
1
1
1
1
1
1
1
1
1
1
1
1
1
1
1
1
1
1
1
1
1
1
1
1
1
1
1
1
1
1
1
1
1
1
1
1
1
1
1
1
1
1
1
1
1
1
1
1
1
1
1
1
1
1
1
1
1
1
1
1
1
1
1
1
1
1
1
1
1
1
1
1
1
1
1
1
1
1
1
1
1
1
1
1
1
1
1
1
1
1
1
1
1
1
1
1
1
1
1
1
1
1
1
1
1
1
1
1
1
1
1
1
1
1
1
1
1
1
1
1
1
1
1
1
1
1
1
1
1
1
1
1
1
1
1
1
1
1
1
1
1
1
1
1
1
1
1
1
1
1
1
1
1
1
1
1
1
1
1
1
1
1
1
1
1
1
1
1
1
1
1
1
1
1
1
1
1
1
1
1
1
1
1
1
1
1
1
1
1
1
1
1
1
1
1
1
1
1
1
1
1
1
1
1
1
1
1
1
1
1
1
1
1
1
1
1
1
1
1
1
1
1
1
1
1
1
1
1
1
1
1
1
1
1
1
1
1
1
1
1
1
1
1
1
1
1
1
1
1
1
1
1
1
1
1
1
1
1
1
1
1
1
1
1
1
1
1
1
1
1
1
1
1
1
1
1
1
1
1
1
1
1
1
1
1
1
1
1
1
1
1
1
1
1
1
1
1
1
1
1
1
1
1
1
1
1
1
1
1
1
1
1
1
1
1
1
1
1
1
1
1
1
1
1
1
1
1
1
1
1
1
1
1
1
1
1
1
1
1
1
1
1
1
1
1
1
1
1
1
1
1
1
1
1
1
1
1
1
1
1
1
1
1
1
1
1
1
1
1
1
1
1
1
1
1
1
1
1
1
1
1
1
1
1
1
1
1
1
1
1
1
1
1
1
1
1
1
1
1
1
1
1
1
1
1
1
1
1
1
1
1
1
1
1
1
1
1
1
1
1
1
1
1
1
1
1
1
1
1
1
1
1
1
1
1
1
1
1
1
1
1
1
1
1
1
1
1
1
1
1
1
1
1
1
1
1
1
1
1
1
1
1
1
1
1
1
1
1
1
1
1
1
1
1
1
1
1
1
1
1
1
1
1
1
1
1
1
1
1
1
1
1
1
1
1
1
1
1
1
1
1
1
1
1
1
1
1
1
1
1
1
1
1
1
1
1
1
1
1
1
1
1
1
1
1
1
1
1
1
1
1
1
1
1
1
1
1
1
1
1
1
1
1
1
1
1
1
1
1
1
1
1
1
1
1
1
1
1
1
1
1
1
1
1
1
1
1
1
1
1
1
1
1
1
1
1
1
1
1
1
1
1
1
1
1
1
1
1
1
1
1
1
1
1
1
1
1
1
1
1
1
1
1
1
1
1
1
1
1
1
1
1
1
1
1
1
1
1
1
1
1
1
1
1
1
1
1
1
1
1
1
1
1
1
1
1
1
1
1
1
1
1
1
1
1
1
1
1
1
1
1
1
1
1
1
1
1
1
1
1
1
1
1
1
1
1
1
1
1
1
1
1
1
1
1
1
1
1
1
1
1
1
1
1
1
1
1
1
1
1
1
1
1
1
1
1
1
1
1
1
1
1
1
1
1
1
1
1
1
1
1
1
1
1
1
1
1
1
1
1
1
1
1
1
1
1
1
1
1
1
1
1
1
1
1
1
1
1
1
1
1
1
1
1
1
1
1
1
1
1
1
1
1
1
1
1
1
1
1
1
1
1
1
1
1
1
1
1
1
1
1
1
1
1
1
1
1
1
1
1
1
1
1
1
1
1
1
1
1
1
1
1
1
1
1
1
1
1
1
1
1
1
1
1
1
1
1
1
1
1
1
1
1
1
1
1
1
1
1
1
1
1
1
1
1
1
1
1
1
1
1
1
1
1
1
1
1
1
1
1
1
1
1
1
1
1
1
1
1
1
1
1
1
1
1
1
1
1
1
1
1
1
1
1
1
1
1
1
1
1
1
1
1
1
1
1
1
1
1
1
1
1
1
1
1
1
1
1
1
1
1
1
1
1
1
1
1
1
1
1
1
1
1
1
1
1
1
1
1
1
1
1
1
1
1
1
1
1
1
1
1
1
1
1
1
1
1
1
1
1
1
1
1
1
1
1
1
1
1
1
1
1
1
1
1
1
1
1
1
1
1
1
1
1
1
1
1
1
1
1
1
1
1
1
1
1
1
1
1
1
1
1
1
1
1
1
1
1
1
1
1
1
1
1
1
1
1
1
1
1
1
1
1
1
1
1
1
1
1
1
1
1
1
1
1
1
1
1
1
1
1
1
1
1
1
1
1
1
1
1
1
1
1
1
1
1
1
1
1
1
1
1
1
1
1
1
1
1
1
1
1
1
1
1
1
1
1
1
1
1
1
1
1
1
1
1
1
1
1
1
1
1
1
1
1
1
1
1
1
1
1
1
1
1
1
1
1
1
1
1
1
1
1
1
1
1
1
1
1
1
1
1
1
1
1
1
1
1
1
1
1
1
1
1
1
1
1
1
1
1
1
1
1
1
1
1
1
1
1
1
1
1
1
1
1
1
1
1
1
1
1
1
1
1
1
1
1
1
1
1
1
1
1
1
1
1
1
1
1
1
1
1
1
1
1
1
1
1
1
1
1
1
1
1
1
1
1
1
1
1
1
1
1
1
1
1
1
1
1
1
1
1
1
1
1
1
1
1
1
1
1
1
1
1
1
1
1
1
1
1
1
1
1
1
1
1
1
1
1
1
1
1
1
1
1
1
1
1
1
1
1
1
1
1
1
1
1
1
1
1
1
1
1
1
1
1
1
1
1
1
1
1
1
1
1
1
1
1
1
1
1
1
1
1
1
1
1
1
1
1
1
1
1
1
1
1
1
1
1
1
1
1
1
1
1
1
1
1
1
1
1
1
1
1
1
1
1
1
1
1
1
1
1
1
1
1
1
1
1
1
1
1
1
1
1
1
1
1
1
1
1
1
1
1
1
1
1
1
1
1
1
1
1
1
1
1
1
1
1
1
1
1
1
1
1
1
1
1
1
1
1
1
1
1
1
1
1
1
1
1
1
1
1
1
1
1
1
1
1
1
1
1
1
1
1
1
1
1
1
1
1
1
1
1
1
1
1
1
1
1
1
1
1
1
1
1
1
1
1
1
1
1
1
1
1
1
1
1
1
1
1
1
1
1
1
1
1
1
1
1
1
1
1
1
1
1
1
1
1
1
1
1
1
1
1
1
1
1
1
1
1
1
1
1
1
1
1
1
1
1
1
1
1
1
1
1
1
1
1
1
1
1
1
1
1
1
1
1
1
1
1
1
1
1
1
1
1
1
1
1
1
1
1
1
1
1
1
1
1
1
1
1
1
1
1
1
1
1
1
1
1
1
1
1
1
1
1
1
1
1
1
1
1
1
1
1
1
1
1
1
1
1
1
1
1
1
1
1
1
1
1
1
1
1
1
1
1
1
1
1
1
1
1
1
1
1
1
1
1
1
1
1
1
1
1
1
1
1
1
1
1
1
1
1
1
1
1
1
1
1
1
1
1
1
1
1
1
1
1
1
1
1
1
1
1
1
1
1
1
1
1
1
1
1
1
1
1
1
1
1
1
1
1
1
1
1
1
1
1
1
1
1
1
1
1
1
1
1
1
1
1
1
1
1
1
1
1
1
1
1
1
1
1
1
1
1
1
1
1
1
1
1
1
1
1
1
1
1
1
1
1
1
1
1
1
1
1
1
1
1
1
1
1
1
1
1
1
1
1
1
1
1
1
1
1
1
1
1
1
1
1
1
1
1
1
1
1
1
1
1
1
1
1
1
1
1
1
1
1
1
1
1
1
1
1
1
1
1
1
1
1
1
1
1
1
1
1
1
1
1
1
1
1
1
1
1
1
1
1
1
1
1
1
1
1
1
1
1
1
1
1
1
1
1
1
1
1
1
1
1
1
1
1
1
1
1
1
1
1
1
1
1
1
1
1
1
1
1
1
1
1
1
1
1
1
1
1
1
1
1
1
1
1
1
1
1
1
1
1
1
1
1
1
1
1
1
1
1
1
1
1
1
1
1
1
1
1
1
1
1
1
1
1
1
1
1
1
1
1
1
1
1
1
1
1
1
1
1
1
1
1
1
1
1
1
1
1
1
1
1
1
1
1
1
1
1
1
1
1
1
1
1
1
1
1
1
1
1
1
1
1
1
1
1
1
1
1
1
1
1
VECTORS v double
-1.1222028 -1.1222028 -1.1222028
-2.3308023 -1.1222028 -1.1222028
-3.5331303 -1.1222028 -1.1222028
-4.7354629 -1.1222028 -1.1222028
-5.9378003 -1.1222028 -1.1222028
-7.1401096 -1.1222028 -1.1222028
-8.3424656 -1.1222028 -1.1222028
-9.5447749 -1.1222028 -1.1222028
-10.747131 -1.1222028 -1.1222028
-11.94944 -1.1222028 -1.1222028
-13.151796 -1.1222028 -1.1222028
-14.354106 -1.1222028 -1.1222028
-15.556462 -1.1222028 -1.1222028
-16.758771 -1.1222028 -1.1222028
-17.961127 -1.1222028 -1.1222028
-19.163436 -1.1222028 -1.1222028
-20.365792 -1.1222028 -1.1222028
-21.568102 -1.1222028 -1.1222028
-22.770457 -1.1222028 -1.1222028
-23.979034 -1.1222028 -1.1222028
-1.1222028 -2.3308023 -1.1222028
-2.3308023 -2.3308023 -1.1222028
-3.5331303 -2.3308023 -1.1222028
-4.7354629 -2.3308023 -1.1222028
-5.9378003 -2.3308023 -1.1222028
-7.1401096 -2.3308023 -1.1222028
-8.3424656 -2.3308023 -1.1222028
-9.5447749 -2.3308023 -1.1222028
-10.747131 -2.3308023 -1.1222028
-11.94944 -2.3308023 -1.1222028
-13.151796 -2.3308023 -1.1222028
-14.354106 -2.3308023 -1.1222028
-15.556462 -2.3308023 -1.1222028
-16.758771 -2.3308023 -1.1222028
-17.961127 -2.3308023 -1.1222028
-19.163436 -2.3308023 -1.1222028
-20.365792 -2.3308023 -1.1222028
-21.568102 -2.3308023 -1.1222028
-22.770457 -2.3308023 -1.1222028
-23.979034 -2.3308023 -1.1222028
-1.1222028 -3.5331303 -1.1222028
-2.3308023 -3.5331303 -1.1222028
-3.5331303 -3.5331303 -1.1222028
-4.7354629 -3.5331303 -1.1222028
-5.9378003 -3.5331303 -1.1222028
-7.1401096 -3.5331303 -1.1222028
-8.3424656 -3.5331303 -1.1222028
-9.5447749 -3.5331303 -1.1222028
-10.747131 -3.5331303 -1.1222028
-11.94944 -3.5331303 -1.1222028
-13.151796 -3.5331303 -1.1222028
-14.354106 -3.5331303 -1.1222028
-15.556462 -3.5331303 -1.1222028
-16.758771 -3.5331303 -1.1222028
-17.961127 -3.5331303 -1.1222028
-19.163436 -3.5331303 -1.1222028
-20.365792 -3.5331303 -1.1222028
-21.568102 -3.5331303 -1.1222028
-22.770457 -3.5331303 -1.1222028
-23.979034 -3.5331303 -1.1222028
-1.1222028 -4.7354629 -1.1222028
-2.3308023 -4.7354629 -1.1222028
-3.5331303 -4.7354629 -1.1222028
-4.7354629 -4.7354629 -1.1222028
-5.9378003 -4.7354629 -1.1222028
-7.1401096 -4.7354629 -1.1222028
-8.3424656 -4.7354629 -1.1222028
-9.5447749 -4.7354629 -1.1222028
-10.747131 -4.7354629 -1.1222028
-11.94944 -4.7354629 -1.1222028
-13.151796 -4.7354629 -1.1222028
-14.354106 -4.7354629 -1.1222028
-15.556462 -4.7354629 -1.1222028
-16.758771 -4.7354629 -1.1222028
-17.961127 -4.7354629 -1.1222028
-19.163436 -4.7354629 -1.1222028
-20.365792 -4.7354629 -1.1222028
-21.568102 -4.7354629 -1.1222028
-22.770457 -4.7354629 -1.1222028
-23.979034 -4.7354629 -1.1222028
-1.1222028 -5.9378003 -1.1222028
-2.3308023 -5.9378003 -1.1222028
-3.5331303 -5.9378003 -1.1222028
-4.7354629 -5.9378003 -1.1222028
-5.9378003 -5.9378003 -1.1222028
-7.1401096 -5.9378003 -1.1222028
-8.3424656 -5.9378003 -1.1222028
-9.5447749 -5.9378003 -1.1222028
-10.747131 -5.9378003 -1.1222028
-11.94944 -5.9378003 -1.1222028
-13.151796 -5.9378003 -1.1222028
-14.354106 -5.9378003 -1.1222028
-15.556462 -5.9378003 -1.1222028
-16.758771 -5.9378003 -1.1222028
-17.961127 -5.9378003 -1.1222028
-19.163436 -5.9378003 -1.1222028
-20.365792 -5.9378003 -1.1222028
-21.568102 -5.9378003 -1.1222028
-22.770457 -5.9378003 -1.1222028
-23.979034 -5.9378003 -1.1222028
-1.1222028 -7.1401096 -1.1222028
-2.3308023 -7.1401096 -1.1222028
-3.5331303 -7.1401096 -1.1222028
-4.7354629 -7.1401096 -1.1222028
-5.9378003 -7.1401096 -1.1222028
-7.1401096 -7.1401096 -1.1222028
-8.3424656 -7.1401096 -1.1222028
-9.5447749 -7.1401096 -1.1222028
-10.747131 -7.1401096 -1.1222028
-11.94944 -7.1401096 -1.1222028
-13.151796 -7.1401096 -1.1222028
-14.354106 -7.1401096 -1.1222028
-15.556462 -7.1401096 -1.1222028
-16.758771 -7.1401096 -1.1222028
-17.961127 -7.1401096 -1.1222028
-19.163436 -7.1401096 -1.1222028
-20.365792 -7.1401096 -1.1222028
-21.568102 -7.1401096 -1.1222028
-22.770457 -7.1401096 -1.1222028
-23.979034 -7.1401096 -1.1222028
-1.1222028 -8.3424656 -1.1222028
-2.3308023 -8.3424656 -1.1222028
-3.5331303 -8.3424656 -1.1222028
-4.7354629 -8.3424656 -1.1222028
-5.9378003 -8.3424656 -1.1222028
-7.1401096 -8.3424656 -1.1222028
-8.3424656 -8.3424656 -1.1222028
-9.5447749 -8.3424656 -1.1222028
-10.747131 -8.3424656 -1.1222028
-11.94944 -8.3424656 -1.1222028
-13.151796 -8.3424656 -1.1222028
-14.354106 -8.3424656 -1.1222028
-15.556462 -8.3424656 -1.1222028
-16.758771 -8.3424656 -1.1222028
-17.961127 -8.3424656 -1.1222028
-19.163436 -8.3424656 -1.1222028
-20.365792 -8.3424656 -1.1222028
-21.568102 -8.3424656 -1.1222028
-22.770457 -8.3424656 -1.1222028
-23.979034 -8.3424656 -1.1222028
-1.1222028 -9.5447749 -1.1222028
-2.3308023 -9.5447749 -1.1222028
-3.5331303 -9.5447749 -1.1222028
-4.7354629 -9.5447749 -1.1222028
-5.9378003 -9.5447749 -1.1222028
-7.1401096 -9.5447749 -1.1222028
-8.3424656 -9.5447749 -1.1222028
-9.5447749 -9.5447749 -1.1222028
-10.747131 -9.5447749 -1.1222028
-11.94944 -9.5447749 -1.1222028
-13.151796 -9.5447749 -1.1222028
-14.354106 -9.5447749 -1.1222028
-15.556462 -9.5447749 -1.1222028
-16.758771 -9.5447749 -1.1222028
-17.961127 -9.5447749 -1.1222028
-19.163436 -9.5447749 -1.1222028
-20.365792 -9.5447749 -1.1222028
-21.568102 -9.5447749 -1.1222028
-22.770457 -9.5447749 -1.1222028
-23.979034 -9.5447749 -1.1222028
-1.1222028 -10.747131 -1.1222028
-2.3308023 -10.747131 -1.1222028
-3.5331303 -10.747131 -1.1222028
-4.7354629 -10.747131 -1.1222028
-5.9378003 -10.747131 -1.1222028
-7.1401096 -10.747131 -1.1222028
-8.3424656 -10.747131 -1.1222028
-9.5447749 -10.747131 -1.1222028
-10.747131 -10.747131 -1.1222028
-11.94944 -10.747131 -1.1222028
-13.151796 -10.747131 -1.1222028
-14.354106 -10.747131 -1.1222028
-15.556462 -10.747131 -1.1222028
-16.758771 -10.747131 -1.1222028
-17.961127 -10.747131 -1.1222028
-19.163436 -10.747131 -1.1222028
-20.365792 -10.747131 -1.1222028
-21.568102 -10.747131 -1.1222028
-22.770457 -10.747131 -1.1222028
-23.979034 -10.747131 -1.1222028
-1.1222028 -11.94944 -1.1222028
-2.3308023 -11.94944 -1.1222028
-3.5331303 -11.94944 -1.1222028
-4.7354629 -11.94944 -1.1222028
-5.9378003 -11.94944 -1.1222028
-7.1401096 -11.94944 -1.1222028
-8.3424656 -11.94944 -1.1222028
-9.5447749 -11.94944 -1.1222028
-10.747131 -11.94944 -1.1222028
-11.94944 -11.94944 -1.1222028
-13.151796 -11.94944 -1.1222028
-14.354106 -11.94944 -1.1222028
-15.556462 -11.94944 -1.1222028
-16.758771 -11.94944 -1.1222028
-17.961127 -11.94944 -1.1222028
-19.163436 -11.94944 -1.1222028
-20.365792 -11.94944 -1.1222028
-21.568102 -11.94944 -1.1222028
-22.770457 -11.94944 -1.1222028
-23.979034 -11.94944 -1.1222028
-1.1222028 -13.151796 -1.1222028
-2.3308023 -13.151796 -1.1222028
-3.5331303 -13.151796 -1.1222028
-4.7354629 -13.151796 -1.1222028
-5.9378003 -13.151796 -1.1222028
-7.1401096 -13.151796 -1.1222028
-8.3424656 -13.151796 -1.1222028
-9.5447749 -13.151796 -1.1222028
-10.747131 -13.151796 -1.1222028
-11.94944 -13.151796 -1.1222028
-13.151796 -13.151796 -1.1222028
-14.354106 -13.151796 -1.1222028
-15.556462 -13.151796 -1.1222028
-16.758771 -13.151796 -1.1222028
-17.961127 -13.151796 -1.1222028
-19.163436 -13.151796 -1.1222028
-20.365792 -13.151796 -1.1222028
-21.568102 -13.151796 -1.1222028
-22.770457 -13.151796 -1.1222028
-23.979034 -13.151796 -1.1222028
-1.1222028 -14.354106 -1.1222028
-2.3308023 -14.354106 -1.1222028
-3.5331303 -14.354106 -1.1222028
-4.7354629 -14.354106 -1.1222028
-5.9378003 -14.354106 -1.1222028
-7.1401096 -14.354106 -1.1222028
-8.3424656 -14.354106 -1.1222028
-9.5447749 -14.354106 -1.1222028
-10.747131 -14.354106 -1.1222028
-11.94944 -14.354106 -1.1222028
-13.151796 -14.354106 -1.1222028
-14.354106 -14.354106 -1.1222028
-15.556462 -14.354106 -1.1222028
-16.758771 -14.354106 -1.1222028
-17.961127 -14.354106 -1.1222028
-19.163436 -14.354106 -1.1222028
-20.365792 -14.354106 -1.1222028
-21.568102 -14.354106 -1.1222028
-22.770457 -14.354106 -1.1222028
-23.979034 -14.354106 -1.1222028
-1.1222028 -15.556462 -1.1222028
-2.3308023 -15.556462 -1.1222028
-3.5331303 -15.556462 -1.1222028
-4.7354629 -15.556462 -1.1222028
-5.9378003 -15.556462 -1.1222028
-7.1401096 -15.556462 -1.1222028
-8.3424656 -15.556462 -1.1222028
-9.5447749 -15.556462 -1.1222028
-10.747131 -15.556462 -1.1222028
-11.94944 -15.556462 -1.1222028
-13.151796 -15.556462 -1.1222028
-14.354106 -15.556462 -1.1222028
-15.556462 -15.556462 -1.1222028
-16.758771 -15.556462 -1.1222028
-17.961127 -15.556462 -1.1222028
-19.163436 -15.556462 -1.1222028
-20.365792 -15.556462 -1.1222028
-21.568102 -15.556462 -1.1222028
-22.770457 -15.556462 -1.1222028
-23.979034 -15.556462 -1.1222028
-1.1222028 -16.758771 -1.1222028
-2.3308023 -16.758771 -1.1222028
-3.5331303 -16.758771 -1.1222028
-4.7354629 -16.758771 -1.1222028
-5.9378003 -16.758771 -1.1222028
-7.1401096 -16.758771 -1.1222028
-8.3424656 -16.758771 -1.1222028
-9.5447749 -16.758771 -1.1222028
-10.747131 -16.758771 -1.1222028
-11.94944 -16.758771 -1.1222028
-13.151796 -16.758771 -1.1222028
-14.354106 -16.758771 -1.1222028
-15.556462 -16.758771 -1.1222028
-16.758771 -16.758771 -1.1222028
-17.961127 -16.758771 -1.1222028
-19.163436 -16.758771 -1.1222028
-20.365792 -16.758771 -1.1222028
-21.568102 -16.758771 -1.1222028
-22.770457 -16.758771 -1.1222028
-23.979034 -16.758771 -1.1222028
-1.1222028 -17.961127 -1.1222028
-2.3308023 -17.961127 -1.1222028
-3.5331303 -17.961127 -1.1222028
-4.7354629 -17.961127 -1.1222028
-5.9378003 -17.961127 -1.1222028
-7.1401096 -17.961127 -1.1222028
-8.3424656 -17.961127 -1.1222028
-9.5447749 -17.961127 -1.1222028
-10.747131 -17.961127 -1.1222028
-11.94944 -17.961127 -1.1222028
-13.151796 -17.961127 -1.1222028
-14.354106 -17.961127 -1.1222028
-15.556462 -17.961127 -1.1222028
-16.758771 -17.961127 -1.1222028
-17.961127 -17.961127 -1.1222028
-19.163436 -17.961127 -1.1222028
-20.365792 -17.961127 -1.1222028
-21.568102 -17.961127 -1.1222028
-22.770457 -17.961127 -1.1222028
-23.979034 -17.961127 -1.1222028
-1.1222028 -19.163436 -1.1222028
-2.3308023 -19.163436 -1.1222028
-3.5331303 -19.163436 -1.1222028
-4.7354629 -19.163436 -1.1222028
-5.9378003 -19.163436 -1.1222028
-7.1401096 -19.163436 -1.1222028
-8.3424656 -19.163436 -1.1222028
-9.5447749 -19.163436 -1.1222028
-10.747131 -19.163436 -1.1222028
-11.94944 -19.163436 -1.1222028
-13.151796 -19.163436 -1.1222028
-14.354106 -19.163436 -1.1222028
-15.556462 -19.163436 -1.1222028
-16.758771 -19.163436 -1.1222028
-17.961127 -19.163436 -1.1222028
-19.163436 -19.163436 -1.1222028
-20.365792 -19.163436 -1.1222028
-21.568102 -19.163436 -1.1222028
-22.770457 -19.163436 -1.1222028
-23.979034 -19.163436 -1.1222028
-1.1222028 -20.365792 -1.1222028
-2.3308023 -20.365792 -1.1222028
-3.5331303 -20.365792 -1.1222028
-4.7354629 -20.365792 -1.1222028
-5.9378003 -20.365792 -1.1222028
-7.1401096 -20.365792 -1.1222028
-8.3424656 -20.365792 -1.1222028
-9.5447749 -20.365792 -1.1222028
-10.747131 -20.365792 -1.1222028
-11.94944 -20.365792 -1.1222028
-13.151796 -20.365792 -1.1222028
-14.354106 -20.365792 -1.1222028
-15.556462 -20.365792 -1.1222028
-16.758771 -20.365792 -1.1222028
-17.961127 -20.365792 -1.1222028
-19.163436 -20.365792 -1.1222028
-20.365792 -20.365792 -1.1222028
-21.568102 -20.365792 -1.1222028
-22.770457 -20.365792 -1.1222028
-23.979034 -20.365792 -1.1222028
-1.1222028 -21.568102 -1.1222028
-2.3308023 -21.568102 -1.1222028
-3.5331303 -21.568102 -1.1222028
-4.7354629 -21.568102 -1.1222028
-5.9378003 -21.568102 -1.1222028
-7.1401096 -21.568102 -1.1222028
-8.3424656 -21.568102 -1.1222028
-9.5447749 -21.568102 -1.1222028
-10.747131 -21.568102 -1.1222028
-11.94944 -21.568102 -1.1222028
-13.151796 -21.568102 -1.1222028
-14.354106 -21.568102 -1.1222028
-15.556462 -21.568102 -1.1222028
-16.758771 -21.568102 -1.1222028
-17.961127 -21.568102 -1.1222028
-19.163436 -21.568102 -1.1222028
-20.365792 -21.568102 -1.1222028
-21.568102 -21.568102 -1.1222028
-22.770457 -21.568102 -1.1222028
-23.979034 -21.568102 -1.1222028
-1.1222028 -22.770457 -1.1222028
-2.3308023 -22.770457 -1.1222028
-3.5331303 -22.770457 -1.1222028
-4.7354629 -22.770457 -1.1222028
-5.9378003 -22.770457 -1.1222028
-7.1401096 -22.770457 -1.1222028
-8.3424656 -22.770457 -1.1222028
-9.5447749 -22.770457 -1.1222028
-10.747131 -22.770457 -1.1222028
-11.94944 -22.770457 -1.1222028
-13.151796 -22.770457 -1.1222028
-14.354106 -22.770457 -1.1222028
-15.556462 -22.770457 -1.1222028
-16.758771 -22.770457 -1.1222028
-17.961127 -22.770457 -1.1222028
-19.163436 -22.770457 -1.1222028
-20.365792 -22.770457 -1.1222028
-21.568102 -22.770457 -1.1222028
-22.770457 -22.770457 -1.1222028
-23.979034 -22.770457 -1.1222028
-1.1222028 -23.979034 -1.1222028
-2.3308023 -23.979034 -1.1222028
-3.5331303 -23.979034 -1.1222028
-4.7354629 -23.979034 -1.1222028
-5.9378003 -23.979034 -1.1222028
-7.1401096 -23.979034 -1.1222028
-8.3424656 -23.979034 -1.1222028
-9.5447749 -23.979034 -1.1222028
-10.747131 -23.979034 -1.1222028
-11.94944 -23.979034 -1.1222028
-13.151796 -23.979034 -1.1222028
-14.354106 -23.979034 -1.1222028
-15.556462 -23.979034 -1.1222028
-16.758771 -23.979034 -1.1222028
-17.961127 -23.979034 -1.1222028
-19.163436 -23.979034 -1.1222028
-20.365792 -23.979034 -1.1222028
-21.568102 -23.979034 -1.1222028
-22.770457 -23.979034 -1.1222028
-23.979034 -23.979034 -1.1222028
-1.1222028 -1.1222028 -2.3308023
-2.3308023 -1.1222028 -2.3308023
-3.5331303 -1.1222028 -2.3308023
-4.7354629 -1.1222028 -2.3308023
-5.9378003 -1.1222028 -2.3308023
-7.1401096 -1.1222028 -2.3308023
-8.3424656 -1.1222028 -2.3308023
-9.5447749 -1.1222028 -2.3308023
-10.747131 -1.1222028 -2.3308023
-11.94944 -1.1222028 -2.3308023
-13.151796 -1.1222028 -2.3308023
-14.354106 -1.1222028 -2.3308023
-15.556462 -1.1222028 -2.3308023
-16.758771 -1.1222028 -2.3308023
-17.961127 -1.1222028 -2.3308023
-19.163436 -1.1222028 -2.3308023
-20.365792 -1.1222028 -2.3308023
-21.568102 -1.1222028 -2.3308023
-22.770457 -1.1222028 -2.3308023
-23.979034 -1.1222028 -2.3308023
-1.1222028 -2.3308023 -2.3308023
-2.3308023 -2.3308023 -2.3308023
-3.5331303 -2.3308023 -2.3308023