# vtk DataFile Version 4.0
hesp visualization file
ASCII
DATASET UNSTRUCTURED_GRID
POINTS 3000 double
0.4044196 0.4044196 0.4044196
2.8773381 0.4044196 0.4044196
5.352278 0.4044196 0.4044196
7.8272275 0.4044196 0.4044196
10.302187 0.4044196 0.4044196
12.777088 0.4044196 0.4044196
15.252086 0.4044196 0.4044196
17.726987 0.4044196 0.4044196
20.201985 0.4044196 0.4044196
22.676886 0.4044196 0.4044196
25.151884 0.4044196 0.4044196
27.626785 0.4044196 0.4044196
30.101783 0.4044196 0.4044196
32.576684 0.4044196 0.4044196
35.051682 0.4044196 0.4044196
37.526583 0.4044196 0.4044196
40.00158 0.4044196 0.4044196
42.476482 0.4044196 0.4044196
44.951479 0.4044196 0.4044196
47.42435 0.4044196 0.4044196
0.4044196 2.8773381 0.4044196
2.8773381 2.8773381 0.4044196
5.352278 2.8773381 0.4044196
7.8272275 2.8773381 0.4044196
10.302187 2.8773381 0.4044196
12.777088 2.8773381 0.4044196
15.252086 2.8773381 0.4044196
17.726987 2.8773381 0.4044196
20.201985 2.8773381 0.4044196
22.676886 2.8773381 0.4044196
25.151884 2.8773381 0.4044196
27.626785 2.8773381 0.4044196
30.101783 2.8773381 0.4044196
32.576684 2.8773381 0.4044196
35.051682 2.8773381 0.4044196
37.526583 2.8773381 0.4044196
40.00158 2.8773381 0.4044196
42.476482 2.8773381 0.4044196
44.951479 2.8773381 0.4044196
47.42435 2.8773381 0.4044196
0.4044196 5.352278 0.4044196
2.8773381 5.352278 0.4044196
5.352278 5.352278 0.4044196
7.8272275 5.352278 0.4044196
10.302187 5.352278 0.4044196
12.777088 5.352278 0.4044196
15.252086 5.352278 0.4044196
17.726987 5.352278 0.4044196
20.201985 5.352278 0.4044196
22.676886 5.352278 0.4044196
25.151884 5.352278 0.4044196
27.626785 5.352278 0.4044196
30.101783 5.352278 0.4044196
32.576684 5.352278 0.4044196
35.051682 5.352278 0.4044196
37.526583 5.352278 0.4044196
40.00158 5.352278 0.4044196
42.476482 5.352278 0.4044196
44.951479 5.352278 0.4044196
47.42435 5.352278 0.4044196
0.4044196 7.8272275 0.4044196
2.8773381 7.8272275 0.4044196
5.352278 7.8272275 0.4044196
7.8272275 7.8272275 0.4044196
10.302187 7.8272275 0.4044196
12.777088 7.8272275 0.4044196
15.252086 7.8272275 0.4044196
17.726987 7.8272275 0.4044196
20.201985 7.8272275 0.4044196
22.676886 7.8272275 0.4044196
25.151884 7.8272275 0.4044196
27.626785 7.8272275 0.4044196
30.101783 7.8272275 0.4044196
32.576684 7.8272275 0.4044196
35.051682 7.8272275 0.4044196
37.526583 7.8272275 0.4044196
40.00158 7.8272275 0.4044196
42.476482 7.8272275 0.4044196
44.951479 7.8272275 0.4044196
47.42435 7.8272275 0.4044196
0.4044196 10.302187 0.4044196
2.8773381 10.302187 0.4044196
5.352278 10.302187 0.4044196
7.8272275 10.302187 0.4044196
10.302187 10.302187 0.4044196
12.777088 10.302187 0.4044196
15.252086 10.302187 0.4044196
17.726987 10.302187 0.4044196
20.201985 10.302187 0.4044196
22.676886 10.302187 0.4044196
25.151884 10.302187 0.4044196
27.626785 10.302187 0.4044196
30.101783 10.302187 0.4044196
32.576684 10.302187 0.4044196
35.051682 10.302187 0.4044196
37.526583 10.302187 0.4044196
40.00158 10.302187 0.4044196
42.476482 10.302187 0.4044196
44.951479 10.302187 0.4044196
47.42435 10.302187 0.4044196
0.4044196 12.777088 0.4044196
2.8773381 12.777088 0.4044196
5.352278 12.777088 0.4044196
7.8272275 12.777088 0.4044196
10.302187 12.777088 0.4044196
12.777088 12.777088 0.4044196
15.252086 12.777088 0.4044196
17.726987 12.777088 0.4044196
20.201985 12.777088 0.4044196
22.676886 12.777088 0.4044196
25.151884 12.777088 0.4044196
27.626785 12.777088 0.4044196
30.101783 12.777088 0.4044196
32.576684 12.777088 0.4044196
35.051682 12.777088 0.4044196
37.526583 12.777088 0.4044196
40.00158 12.777088 0.4044196
42.476482 12.777088 0.4044196
44.951479 12.777088 0.4044196
47.42435 12.777088 0.4044196
0.4044196 15.252086 0.4044196
2.8773381 15.252086 0.4044196
5.352278 15.252086 0.4044196
7.8272275 15.252086 0.4044196
10.302187 15.252086 0.4044196
12.777088 15.252086 0.4044196
15.252086 15.252086 0.4044196
17.726987 15.252086 0.4044196
20.201985 15.252086 0.4044196
22.676886 15.252086 0.4044196
25.151884 15.252086 0.4044196
27.626785 15.252086 0.4044196
30.101783 15.252086 0.4044196
32.576684 15.252086 0.4044196
35.051682 15.252086 0.4044196
37.526583 15.252086 0.4044196
40.00158 15.252086 0.4044196
42.476482 15.252086 0.4044196
44.951479 15.252086 0.4044196
47.42435 15.252086 0.4044196
0.4044196 17.726987 0.4044196
2.8773381 17.726987 0.4044196
5.352278 17.726987 0.4044196
7.8272275 17.726987 0.4044196
10.302187 17.726987 0.4044196
12.777088 17.726987 0.4044196
15.252086 17.726987 0.4044196
17.726987 17.726987 0.4044196
20.201985 17.726987 0.4044196
22.676886 17.726987 0.4044196
25.151884 17.726987 0.4044196
27.626785 17.726987 0.4044196
30.101783 17.726987 0.4044196
32.576684 17.726987 0.4044196
35.051682 17.726987 0.4044196
37.526583 17.726987 0.4044196
40.00158 17.726987 0.4044196
42.476482 17.726987 0.4044196
44.951479 17.726987 0.4044196
47.42435 17.726987 0.4044196
0.4044196 20.201985 0.4044196
2.8773381 20.201985 0.4044196
5.352278 20.201985 0.4044196
7.8272275 20.201985 0.4044196
10.302187 20.201985 0.4044196
12.777088 20.201985 0.4044196
15.252086 20.201985 0.4044196
17.726987 20.201985 0.4044196
20.201985 20.201985 0.4044196
22.676886 20.201985 0.4044196
25.151884 20.201985 0.4044196
27.626785 20.201985 0.4044196
30.101783 20.201985 0.4044196
32.576684 20.201985 0.4044196
35.051682 20.201985 0.4044196
37.526583 20.201985 0.4044196
40.00158 20.201985 0.4044196
42.476482 20.201985 0.4044196
44.951479 20.201985 0.4044196
47.42435 20.201985 0.4044196
0.4044196 22.676886 0.4044196
2.8773381 22.676886 0.4044196
5.352278 22.676886 0.4044196
7.8272275 22.676886 0.4044196
10.302187 22.676886 0.4044196
12.777088 22.676886 0.4044196
15.252086 22.676886 0.4044196
17.726987 22.676886 0.4044196
20.201985 22.676886 0.4044196
22.676886 22.676886 0.4044196
25.151884 22.676886 0.4044196
27.626785 22.676886 0.4044196
30.101783 22.676886 0.4044196
32.576684 22.676886 0.4044196
35.051682 22.676886 0.4044196
37.526583 22.676886 0.4044196
40.00158 22.676886 0.4044196
42.476482 22.676886 0.4044196
44.951479 22.676886 0.4044196
47.42435 22.676886 0.4044196
0.4044196 25.151884 0.4044196
2.8773381 25.151884 0.4044196
5.352278 25.151884 0.4044196
7.8272275 25.151884 0.4044196
10.302187 25.151884 0.4044196
12.777088 25.151884 0.4044196
15.252086 25.151884 0.4044196
17.726987 25.151884 0.4044196
20.201985 25.151884 0.4044196
22.676886 25.151884 0.4044196
25.151884 25.151884 0.4044196
27.626785 25.151884 0.4044196
30.101783 25.151884 0.4044196
32.576684 25.151884 0.4044196
35.051682 25.151884 0.4044196
37.526583 25.151884 0.4044196
40.00158 25.151884 0.4044196
42.476482 25.151884 0.4044196
44.951479 25.151884 0.4044196
47.42435 25.151884 0.4044196
0.4044196 27.626785 0.4044196
2.8773381 27.626785 0.4044196
5.352278 27.626785 0.4044196
7.8272275 27.626785 0.4044196
10.302187 27.626785 0.4044196
12.777088 27.626785 0.4044196
15.252086 27.626785 0.4044196
17.726987 27.626785 0.4044196
20.201985 27.626785 0.4044196
22.676886 27.626785 0.4044196
25.151884 27.626785 0.4044196
27.626785 27.626785 0.4044196
30.101783 27.626785 0.4044196
32.576684 27.626785 0.4044196
35.051682 27.626785 0.4044196
37.526583 27.626785 0.4044196
40.00158 27.626785 0.4044196
42.476482 27.626785 0.4044196
44.951479 27.626785 0.4044196
47.42435 27.626785 0.4044196
0.4044196 30.101783 0.4044196
2.8773381 30.101783 0.4044196
5.352278 30.101783 0.4044196
7.8272275 30.101783 0.4044196
10.302187 30.101783 0.4044196
12.777088 30.101783 0.4044196
15.252086 30.101783 0.4044196
17.726987 30.101783 0.4044196
20.201985 30.101783 0.4044196
22.676886 30.101783 0.4044196
25.151884 30.101783 0.4044196
27.626785 30.101783 0.4044196
30.101783 30.101783 0.4044196
32.576684 30.101783 0.4044196
35.051682 30.101783 0.4044196
37.526583 30.101783 0.4044196
40.00158 30.101783 0.4044196
42.476482 30.101783 0.4044196
44.951479 30.101783 0.4044196
47.42435 30.101783 0.4044196
0.4044196 32.576684 0.4044196
2.8773381 32.576684 0.4044196
5.352278 32.576684 0.4044196
7.8272275 32.576684 0.4044196
10.302187 32.576684 0.4044196
12.777088 32.576684 0.4044196
15.252086 32.576684 0.4044196
17.726987 32.576684 0.4044196
20.201985 32.576684 0.4044196
22.676886 32.576684 0.4044196
25.151884 32.576684 0.4044196
27.626785 32.576684 0.4044196
30.101783 32.576684 0.4044196
32.576684 32.576684 0.4044196
35.051682 32.576684 0.4044196
37.526583 32.576684 0.4044196
40.00158 32.576684 0.4044196
42.476482 32.576684 0.4044196
44.951479 32.576684 0.4044196
47.42435 32.576684 0.4044196
0.4044196 35.051682 0.4044196
2.8773381 35.051682 0.4044196
5.352278 35.051682 0.4044196
7.8272275 35.051682 0.4044196
10.302187 35.051682 0.4044196
12.777088 35.051682 0.4044196
15.252086 35.051682 0.4044196
17.726987 35.051682 0.4044196
20.201985 35.051682 0.4044196
22.676886 35.051682 0.4044196
25.151884 35.051682 0.4044196
27.626785 35.051682 0.4044196
30.101783 35.051682 0.4044196
32.576684 35.051682 0.4044196
35.051682 35.051682 0.4044196
37.526583 35.051682 0.4044196
40.00158 35.051682 0.4044196
42.476482 35.051682 0.4044196
44.951479 35.051682 0.4044196
47.42435 35.051682 0.4044196
0.4044196 37.526583 0.4044196
2.8773381 37.526583 0.4044196
5.352278 37.526583 0.4044196
7.8272275 37.526583 0.4044196
10.302187 37.526583 0.4044196
12.777088 37.526583 0.4044196
15.252086 37.526583 0.4044196
17.726987 37.526583 0.4044196
20.201985 37.526583 0.4044196
22.676886 37.526583 0.4044196
25.151884 37.526583 0.4044196
27.626785 37.526583 0.4044196
30.101783 37.526583 0.4044196
32.576684 37.526583 0.4044196
35.051682 37.526583 0.4044196
37.526583 37.526583 0.4044196
40.00158 37.526583 0.4044196
42.476482 37.526583 0.4044196
44.951479 37.526583 0.4044196
47.42435 37.526583 0.4044196
0.4044196 40.00158 0.4044196
2.8773381 40.00158 0.4044196
5.352278 40.00158 0.4044196
7.8272275 40.00158 0.4044196
10.302187 40.00158 0.4044196
12.777088 40.00158 0.4044196
15.252086 40.00158 0.4044196
17.726987 40.00158 0.4044196
20.201985 40.00158 0.4044196
22.676886 40.00158 0.4044196
25.151884 40.00158 0.4044196
27.626785 40.00158 0.4044196
[...]
POINT_DATA 3000
SCALARS m double
LOOKUP_TABLE default
1
1
1
1
1
1
1
1
1
1
1
1
1
1
1
1
1
1
1
1
1
1
1
1
1
1
1
1
1
1
1
1
1
1
1
1
1
1
1
1
1
1
1
1
1
1
1
1
1
1
1
1
1
1
1
1
1
1
1
1
1
1
1
1
1
1
1
1
1
1
1
1
1
1
1
1
1
1
1
1
1
1
1
1
1
1
1
1
1
1
1
1
1
1
1
1
1
1
1
1
1
1
1
1
1
1
1
1
1
1
1
1
1
1
1
1
1
1
1
1
1
1
1
1
1
1
1
1
1
1
1
1
1
1
1
1
1
1
1
1
1
1
1
1
1
1
1
1
1
1
1
1
1
1
1
1
1
1
1
1
1
1
1
1
1
1
1
1
1
1
1
1
1
1
1
1
1
1
1
1
1
1
1
1
1
1
1
1
1
1
1
1
1
1
1
1
1
1
1
1
1
1
1
1
1
1
1
1
1
1
1
1
1
1
1
1
1
1
1
1
1
1
1
1
1
1
1
1
1
1
1
1
1
1
1
1
1
1
1
1
1
1
1
1
1
1
1
1
1
1
1
1
1
1
1
1
1
1
1
1
1
1
1
1
1
1
1
1
1
1
1
1
1
1
1
1
1
1
1
1
1
1
1
1
1
1
1
1
1
1
1
1
1
1
1
1
1
1
1
1
1
1
1
1
1
1
1
1
1
1
1
1
1
1
1
1
1
1
1
1
1
1
1
1
1
1
1
1
1
1
1
1
1
1
1
1
1
1
1
1
1
1
1
1
1
1
1
1
1
1
1
1
1
1
1
1
1
1
1
1
1
1
1
1
1
1
1
1
1
1
1
1
1
1
1
1
1
1
1
1
1
1
1
1
1
1
1
1
1
1
1
1
1
1
1
1
1
1
1
1
1
1
1
1
1
1
1
1
1
1
1
1
1
1
1
1
1
1
1
1
1
1
1
1
1
1
1
1
1
1
1
1
1
1
1
1
1
1
1
1
1
1
1
1
1
1
1
1
1
1
1
1
1
1
1
1
1
1
1
1
1
1
1
1
1
1
1
1
1
1
1
1
1
1
1
1
1
1
1
1
1
1
1
1
1
1
1
1
1
1
1
1
1
1
1
1
1
1
1
1
1
1
1
1
1
1
1
1
1
1
1
1
1
1
1
1
1
1
1
1
1
1
1
1
1
1
1
1
1
1
1
1
1
1
1
1
1
1
1
1
1
1
1
1
1
1
1
1
1
1
1
1
1
1
1
1
1
1
1
1
1
1
1
1
1
1
1
1
1
1
1
1
1
1
1
1
1
1
1
1
1
1
1
1
1
1
1
1
1
1
1
1
1
1
1
1
1
1
1
1
1
1
1
1
1
1
1
1
1
1
1
1
1
1
1
1
1
1
1
1
1
1
1
1
1
1
1
1
1
1
1
1
1
1
1
1
1
1
1
1
1
1
1
1
1
1
1
1
1
1
1
1
1
1
1
1
1
1
1
1
1
1
1
1
1
1
1
1
1
1
1
1
1
1
1
1
1
1
1
1
1
1
1
1
1
1
1
1
1
1
1
1
1
1
1
1
1
1
1
1
1
1
1
1
1
1
1
1
1
1
1
1
1
1
1
1
1
1
1
1
1
1
1
1
1
1
1
1
1
1
1
1
1
1
1
1
1
1
1
1
1
1
1
1
1
1
1
1
1
1
1
1
1
1
1
1
1
1
1
1
1
1
1
1
1
1
1
1
1
1
1
1
1
1
1
1
1
1
1
1
1
1
1
1
1
1
1
1
1
1
1
1
1
1
1
1
1
1
1
1
1
1
1
1
1
1
1
1
1
1
1
1
1
1
1
1
1
1
1
1
1
1
1
1
1
1
1
1
1
1
1
1
1
1
1
1
1
1
1
1
1
1
1
1
1
1
1
1
1
1
1
1
1
1
1
1
1
1
1
1
1
1
1
1
1
1
1
1
1
1
1
1
1
1
1
1
1
1
1
1
1
1
1
1
1
1
1
1
1
1
1
1
1
1
1
1
1
1
1
1
1
1
1
1
1
1
1
1
1
1
1
1
1
1
1
1
1
1
1
1
1
1
1
1
1
1
1
1
1
1
1
1
1
1
1
1
1
1
1
1
1
1
1
1
1
1
1
1
1
1
1
1
1
1
1
1
1
1
1
1
1
1
1
1
1
1
1
1
1
1
1
1
1
1
1
1
1
1
1
1
1
1
1
1
1
1
1
1
1
1
1
1
1
1
1
1
1
1
1
1
1
1
1
1
1
1
1
1
1
1
1
1
1
1
1
1
1
1
1
1
1
1
1
1
1
1
1
1
1
1
1
1
1
1
1
1
1
1
1
1
1
1
1
1
1
1
1
1
1
1
1
1
1
1
1
1
1
1
1
1
1
1
1
1
1
1
1
1
1
1
1
1
1
1
1
1
1
1
1
1
1
1
1
1
1
1
1
1
1
1
1
1
1
1
1
1
1
1
1
1
1
1
1
1
1
1
1
1
1
1
1
1
1
1
1
1
1
1
1
1
1
1
1
1
1
1
1
1
1
1
1
1
1
1
1
1
1
1
1
1
1
1
1
1
1
1
1
1
1
1
1
1
1
1
1
1
1
1
1
1
1
1
1
1
1
1
1
1
1
1
1
1
1
1
1
1
1
1
1
1
1
1
1
1
1
1
1
1
1
1
1
1
1
1
1
1
1
1
1
1
1
1
1
1
1
1
1
1
1
1
1
1
1
1
1
1
1
1
1
1
1
1
1
1
1
1
1
1
1
1
1
1
1
1
1
1
1
1
1
1
1
1
1
1
1
1
1
1
1
1
1
1
1
1
1
1
1
1
1
1
1
1
1
1
1
1
1
1
1
1
1
1
1
1
1
1
1
1
1
1
1
1
1
1
1
1
1
1
1
1
1
1
1
1
1
1
1
1
1
1
1
1
1
1
1
1
1
1
1
1
1
1
1
1
1
1
1
1
1
1
1
1
1
1
1
1
1
1
1
1
1
1
1
1
1
1
1
1
1
1
1
1
1
1
1
1
1
1
1
1
1
1
1
1
1
1
1
1
1
1
1
1
1
1
1
1
1
1
1
1
1
1
1
1
1
1
1
1
1
1
1
1
1
1
1
1
1
1
1
1
1
1
1
1
1
1
1
1
1
1
1
1
1
1
1
1
1
1
1
1
1
1
1
1
1
1
1
1
1
1
1
1
1
1
1
1
1
1
1
1
1
1
1
1
1
1
1
1
1
1
1
1
1
1
1
1
1
1
1
1
1
1
1
1
1
1
1
1
1
1
1
1
1
1
1
1
1
1
1
1
1
1
1
1
1
1
1
1
1
1
1
1
1
1
1
1
1
1
1
1
1
1
1
1
1
1
1
1
1
1
1
1
1
1
1
1
1
1
1
1
1
1
1
1
1
1
1
1
1
1
1
1
1
1
1
1
1
1
1
1
1
1
1
1
1
1
1
1
1
1
1
1
1
1
1
1
1
1
1
1
1
1
1
1
1
1
1
1
1
1
1
1
1
1
1
1
1
1
1
1
1
1
1
1
1
1
1
1
1
1
1
1
1
1
1
1
1
1
1
1
1
1
1
1
1
1
1
1
1
1
1
1
1
1
1
1
1
1
1
1
1
1
1
1
1
1
1
1
1
1
1
1
1
1
1
1
1
1
1
1
1
1
1
1
1
1
1
1
1
1
1
1
1
1
1
1
1
1
1
1
1
1
1
1
1
1
1
1
1
1
1
1
1
1
1
1
1
1
1
1
1
1
1
1
1
1
1
1
1
1
1
1
1
1
1
1
1
1
1
1
1
1
1
1
1
1
1
1
1
1
1
1
1
1
1
1
1
1
1
1
1
1
1
1
1
1
1
1
1
1
1
1
1
1
1
1
1
1
1
1
1
1
1
1
1
1
1
1
1
1
1
1
1
1
1
1
1
1
1
1
1
1
1
1
1
1
1
1
1
1
1
1
1
1
1
1
1
1
1
1
1
1
1
1
1
1
1
1
1
1
1
1
1
1
1
1
1
1
1
1
1
1
1
1
1
1
1
1
1
1
1
1
1
1
1
1
1
1
1
1
1
1
1
1
1
1
1
1
1
1
1
1
1
1
1
1
1
1
1
1
1
1
1
1
1
1
1
1
1
1
1
1
1
1
1
1
1
1
1
1
1
1
1
1
1
1
1
1
1
1
1
1
1
1
1
1
1
1
1
1
1
1
1
1
1
1
1
1
1
1
1
1
1
1
1
1
1
1
1
1
1
1
1
1
1
1
1
1
1
1
1
1
1
1
1
1
1
1
1
1
1
1
1
1
1
1
1
1
1
1
1
1
1
1
1
1
1
1
1
1
1
1
1
1
1
1
1
1
1
1
1
1
1
1
1
1
1
1
1
1
1
1
1
1
1
1
1
1
1
1
1
1
1
1
1
1
1
1
1
1
1
1
1
1
1
1
1
1
1
1
1
1
1
1
1
1
1
1
1
1
1
1
1
1
1
1
1
1
1
1
1
1
1
1
1
1
1
1
1
1
1
1
1
1
1
1
1
1
1
1
1
1
1
1
1
1
1
1
1
1
1
1
1
1
1
1
1
1
1
1
1
1
1
1
1
1
1
1
1
1
1
1
1
1
1
1
1
1
1
1
1
1
1
1
1
1
1
1
1
1
1
1
1
1
1
1
1
1
1
1
1
1
1
1
1
1
1
1
1
1
1
1
1
1
1
1
1
1
1
1
1
1
1
1
1
1
1
1
1
1
1
1
1
1
1
1
1
1
1
1
1
1
1
1
1
1
1
1
1
1
1
1
1
1
1
1
1
1
1
1
1
1
1
1
1
1
1
1
1
1
1
1
1
1
1
1
1
1
1
1
1
1
1
1
1
1
1
1
1
1
1
1
1
1
1
1
1
1
1
1
1
1
1
1
1
1
1
1
1
1
1
1
1
1
1
1
1
1
1
1
1
1
1
1
1
1
1
1
1
1
1
1
1
1
1
1
1
1
1
1
1
1
1
1
1
1
1
1
1
1
1
1
1
1
1
1
1
1
1
1
1
1
1
1
1
1
1
1
1
1
1
1
1
1
1
1
1
1
1
1
1
1
1
1
1
1
1
1
1
1
1
1
1
1
1
1
1
1
1
1
1
1
1
1
1
1
1
1
1
1
1
1
1
1
1
1
1
1
1
1
1
1
1
1
1
1
1
1
1
1
1
1
1
1
1
1
1
1
1
1
1
1
1
1
1
1
1
1
1
1
1
1
1
1
1
1
1
1
1
1
1
1
1
1
1
1
1
1
1
1
1
1
1
1
1
1
1
1
1
1
1
1
1
1
1
1
1
1
1
1
1
1
1
1
1
1
1
1
1
1
1
1
1
1
1
1
1
1
1
1
1
1
1
1
1
1
1
1
1
1
1
1
1
1
1
1
1
1
1
1
1
1
1
1
1
1
1
1
1
1
1
1
1
1
1
1
1
1
1
1
1
1
1
1
1
1
1
1
1
1
1
1
1
1
1
1
1
1
1
1
1
1
1
1
1
1
1
1
1
1
1
1
1
1
1
1
1
1
1
1
1
1
1
1
1
1
1
1
1
1
1
1
1
1
1
1
1
1
1
1
1
1
1
1
1
1
1
1
1
1
1
1
1
1
1
1
1
1
1
1
1
1
1
1
1
1
1
1
1
1
1
1
1
1
1
1
1
1
1
1
1
1
1
1
1
1
1
1
1
1
1
1
1
1
1
1
1
1
1
1
1
1
1
1
1
1
1
1
1
1
1
1
1
1
1
1
1
1
1
1
1
1
1
1
1
1
1
1
1
1
1
1
1
1
1
1
1
1
1
1
1
1
1
1
1
1
1
1
1
1
1
1
1
1
1
1
1
1
1
1
1
1
1
1
1
1
1
1
1
1
1
1
1
1
1
1
1
1
1
1
1
1
1
1
1
1
1
1
1
1
1
1
1
1
1
1
1
1
1
1
1
1
1
1
1
1
1
1
1
1
1
1
1
1
1
1
1
1
1
1
1
1
1
1
1
1
1
1
1
1
1
1
1
1
1
1
1
1
1
1
1
1
1
1
1
1
1
1
1
1
1
1
1
1
1
1
1
1
1
1
1
1
1
1
1
1
1
1
1
1
1
1
1
1
1
1
1
1
1
1
1
1
1
1
1
1
1
1
1
1
1
1
1
1
1
1
1
1
1
1
1
1
1
1
1
1
1
1
1
1
1
1
1
1
1
1
1
1
1
1
1
1
1
1
1
1
1
1
1
1
1
1
1
1
1
1
1
1
1
1
1
1
1
1
1
1
1
1
1
1
1
1
1
1
1
1
1
1
1
1
1
1
1
1
1
1
1
1
1
1
1
1
1
1
1
1
1
1
1
1
1
1
1
1
1
1
1
1
1
1
1
1
1
1
1
1
1
1
1
1
1
1
1
1
1
1
1
1
1
1
1
1
1
1
1
1
1
1
1
1
1
1
1
1
1
1
1
1
1
1
1
1
1
1
1
1
1
1
1
1
1
1
1
1
1
1
1
1
1
1
1
1
1
1
1
1
1
1
1
1
1
1
1
1
1
1
1
1
1
1
1
1
1
1
1
1
1
1
1
1
1
1
1
1
1
1
1
1
1
1
1
1
1
1
1
1
1
1
1
1
1
1
1
1
1
1
1
1
1
1
1
1
1
1
1
1
1
1
1
1
1
1
1
1
1
1
1
1
1
1
1
1
1
1
1
1
1
1
1
1
1
1
1
1
1
1
1
1
1
1
VECTORS v double
-0.67374317 -0.67374317 -0.67374317
-1.4056431 -0.67374317 -0.67374317
-2.1307343 -0.67374317 -0.67374317
-2.8558282 -0.67374317 -0.67374317
-3.580925 -0.67374317 -0.67374317
-4.3060049 -0.67374317 -0.67374317
-5.0311129 -0.67374317 -0.67374317
-5.7561928 -0.67374317 -0.67374317
-6.4813008 -0.67374317 -0.67374317
-7.2063806 -0.67374317 -0.67374317
-7.9314887 -0.67374317 -0.67374317
-8.6565685 -0.67374317 -0.67374317
-9.3816765 -0.67374317 -0.67374317
-10.106756 -0.67374317 -0.67374317
-10.831864 -0.67374317 -0.67374317
-11.556944 -0.67374317 -0.67374317
-12.282052 -0.67374317 -0.67374317
-13.007132 -0.67374317 -0.67374317
-13.73224 -0.67374317 -0.67374317
-14.464126 -0.67374317 -0.67374317
-0.67374317 -1.4056431 -0.67374317
-1.4056431 -1.4056431 -0.67374317
-2.1307343 -1.4056431 -0.67374317
-2.8558282 -1.4056431 -0.67374317
-3.580925 -1.4056431 -0.67374317
-4.3060049 -1.4056431 -0.67374317
-5.0311129 -1.4056431 -0.67374317
-5.7561928 -1.4056431 -0.67374317
-6.4813008 -1.4056431 -0.67374317
-7.2063806 -1.4056431 -0.67374317
-7.9314887 -1.4056431 -0.67374317
-8.6565685 -1.4056431 -0.67374317
-9.3816765 -1.4056431 -0.67374317
-10.106756 -1.4056431 -0.67374317
-10.831864 -1.4056431 -0.67374317
-11.556944 -1.4056431 -0.67374317
-12.282052 -1.4056431 -0.67374317
-13.007132 -1.4056431 -0.67374317
-13.73224 -1.4056431 -0.67374317
-14.464126 -1.4056431 -0.67374317
-0.67374317 -2.1307343 -0.67374317
-1.4056431 -2.1307343 -0.67374317
-2.1307343 -2.1307343 -0.67374317
-2.8558282 -2.1307343 -0.67374317
-3.580925 -2.1307343 -0.67374317
-4.3060049 -2.1307343 -0.67374317
-5.0311129 -2.1307343 -0.67374317
-5.7561928 -2.1307343 -0.67374317
-6.4813008 -2.1307343 -0.67374317
-7.2063806 -2.1307343 -0.67374317
-7.9314887 -2.1307343 -0.67374317
-8.6565685 -2.1307343 -0.67374317
-9.3816765 -2.1307343 -0.67374317
-10.106756 -2.1307343 -0.67374317
-10.831864 -2.1307343 -0.67374317
-11.556944 -2.1307343 -0.67374317
-12.282052 -2.1307343 -0.67374317
-13.007132 -2.1307343 -0.67374317
-13.73224 -2.1307343 -0.67374317
-14.464126 -2.1307343 -0.67374317
-0.67374317 -2.8558282 -0.67374317
-1.4056431 -2.8558282 -0.67374317
-2.1307343 -2.8558282 -0.67374317
-2.8558282 -2.8558282 -0.67374317
-3.580925 -2.8558282 -0.67374317
-4.3060049 -2.8558282 -0.67374317
-5.0311129 -2.8558282 -0.67374317
-5.7561928 -2.8558282 -0.67374317
-6.4813008 -2.8558282 -0.67374317
-7.2063806 -2.8558282 -0.67374317
-7.9314887 -2.8558282 -0.67374317
-8.6565685 -2.8558282 -0.67374317
-9.3816765 -2.8558282 -0.67374317
-10.106756 -2.8558282 -0.67374317
-10.831864 -2.8558282 -0.67374317
-11.556944 -2.8558282 -0.67374317
-12.282052 -2.8558282 -0.67374317
-13.007132 -2.8558282 -0.67374317
-13.73224 -2.8558282 -0.67374317
-14.464126 -2.8558282 -0.67374317
-0.67374317 -3.580925 -0.67374317
-1.4056431 -3.580925 -0.67374317
-2.1307343 -3.580925 -0.67374317
-2.8558282 -3.580925 -0.67374317
-3.580925 -3.580925 -0.67374317
-4.3060049 -3.580925 -0.67374317
-5.0311129 -3.580925 -0.67374317
-5.7561928 -3.580925 -0.67374317
-6.4813008 -3.580925 -0.67374317
-7.2063806 -3.580925 -0.67374317
-7.9314887 -3.580925 -0.67374317
-8.6565685 -3.580925 -0.67374317
-9.3816765 -3.580925 -0.67374317
-10.106756 -3.580925 -0.67374317
-10.831864 -3.580925 -0.67374317
-11.556944 -3.580925 -0.67374317
-12.282052 -3.580925 -0.67374317
-13.007132 -3.580925 -0.67374317
-13.73224 -3.580925 -0.67374317
-14.464126 -3.580925 -0.67374317
-0.67374317 -4.3060049 -0.67374317
-1.4056431 -4.3060049 -0.67374317
-2.1307343 -4.3060049 -0.67374317
-2.8558282 -4.3060049 -0.67374317
-3.580925 -4.3060049 -0.67374317
-4.3060049 -4.3060049 -0.67374317
-5.0311129 -4.3060049 -0.67374317
-5.7561928 -4.3060049 -0.67374317
-6.4813008 -4.3060049 -0.67374317
-7.2063806 -4.3060049 -0.67374317
-7.9314887 -4.3060049 -0.67374317
-8.6565685 -4.3060049 -0.67374317
-9.3816765 -4.3060049 -0.67374317
-10.106756 -4.3060049 -0.67374317
-10.831864 -4.3060049 -0.67374317
-11.556944 -4.3060049 -0.67374317
-12.282052 -4.3060049 -0.67374317
-13.007132 -4.3060049 -0.67374317
-13.73224 -4.3060049 -0.67374317
-14.464126 -4.3060049 -0.67374317
-0.67374317 -5.0311129 -0.67374317
-1.4056431 -5.0311129 -0.67374317
-2.1307343 -5.0311129 -0.67374317
-2.8558282 -5.0311129 -0.67374317
-3.580925 -5.0311129 -0.67374317
-4.3060049 -5.0311129 -0.67374317
-5.0311129 -5.0311129 -0.67374317
-5.7561928 -5.0311129 -0.67374317
-6.4813008 -5.0311129 -0.67374317
-7.2063806 -5.0311129 -0.67374317
-7.9314887 -5.0311129 -0.67374317
-8.6565685 -5.0311129 -0.67374317
-9.3816765 -5.0311129 -0.67374317
-10.106756 -5.0311129 -0.67374317
-10.831864 -5.0311129 -0.67374317
-11.556944 -5.0311129 -0.67374317
-12.282052 -5.0311129 -0.67374317
-13.007132 -5.0311129 -0.67374317
-13.73224 -5.0311129 -0.67374317
-14.464126 -5.0311129 -0.67374317
-0.67374317 -5.7561928 -0.67374317
-1.4056431 -5.7561928 -0.67374317
-2.1307343 -5.7561928 -0.67374317
-2.8558282 -5.7561928 -0.67374317
-3.580925 -5.7561928 -0.67374317
-4.3060049 -5.7561928 -0.67374317
-5.0311129 -5.7561928 -0.67374317
-5.7561928 -5.7561928 -0.67374317
-6.4813008 -5.7561928 -0.67374317
-7.2063806 -5.7561928 -0.67374317
-7.9314887 -5.7561928 -0.67374317
-8.6565685 -5.7561928 -0.67374317
-9.3816765 -5.7561928 -0.67374317
-10.106756 -5.7561928 -0.67374317
-10.831864 -5.7561928 -0.67374317
-11.556944 -5.7561928 -0.67374317
-12.282052 -5.7561928 -0.67374317
-13.007132 -5.7561928 -0.67374317
-13.73224 -5.7561928 -0.67374317
-14.464126 -5.7561928 -0.67374317
-0.67374317 -6.4813008 -0.67374317
-1.4056431 -6.4813008 -0.67374317
-2.1307343 -6.4813008 -0.67374317
-2.8558282 -6.4813008 -0.67374317
-3.580925 -6.4813008 -0.67374317
-4.3060049 -6.4813008 -0.67374317
-5.0311129 -6.4813008 -0.67374317
-5.7561928 -6.4813008 -0.67374317
-6.4813008 -6.4813008 -0.67374317
-7.2063806 -6.4813008 -0.67374317
-7.9314887 -6.4813008 -0.67374317
-8.6565685 -6.4813008 -0.67374317
-9.3816765 -6.4813008 -0.67374317
-10.106756 -6.4813008 -0.67374317
-10.831864 -6.4813008 -0.67374317
-11.556944 -6.4813008 -0.67374317
-12.282052 -6.4813008 -0.67374317
-13.007132 -6.4813008 -0.67374317
-13.73224 -6.4813008 -0.67374317
-14.464126 -6.4813008 -0.67374317
-0.67374317 -7.2063806 -0.67374317
-1.4056431 -7.2063806 -0.67374317
-2.1307343 -7.2063806 -0.67374317
-2.8558282 -7.2063806 -0.67374317
-3.580925 -7.2063806 -0.67374317
-4.3060049 -7.2063806 -0.67374317
-5.0311129 -7.2063806 -0.67374317
-5.7561928 -7.2063806 -0.67374317
-6.4813008 -7.2063806 -0.67374317
-7.2063806 -7.2063806 -0.67374317
-7.9314887 -7.2063806 -0.67374317
-8.6565685 -7.2063806 -0.67374317
-9.3816765 -7.2063806 -0.67374317
-10.106756 -7.2063806 -0.67374317
-10.831864 -7.2063806 -0.67374317
-11.556944 -7.2063806 -0.67374317
-12.282052 -7.2063806 -0.67374317
-13.007132 -7.2063806 -0.67374317
-13.73224 -7.2063806 -0.67374317
-14.464126 -7.2063806 -0.67374317
-0.67374317 -7.9314887 -0.67374317
-1.4056431 -7.9314887 -0.67374317
-2.1307343 -7.9314887 -0.67374317
-2.8558282 -7.9314887 -0.67374317
-3.580925 -7.9314887 -0.67374317
-4.3060049 -7.9314887 -0.67374317
-5.0311129 -7.9314887 -0.67374317
-5.7561928 -7.9314887 -0.67374317
-6.4813008 -7.9314887 -0.67374317
-7.2063806 -7.9314887 -0.67374317
-7.9314887 -7.9314887 -0.67374317
-8.6565685 -7.9314887 -0.67374317
-9.3816765 -7.9314887 -0.67374317
-10.106756 -7.9314887 -0.67374317
-10.831864 -7.9314887 -0.67374317
-11.556944 -7.9314887 -0.67374317
-12.282052 -7.9314887 -0.67374317
-13.007132 -7.9314887 -0.67374317
-13.73224 -7.9314887 -0.67374317
-14.464126 -7.9314887 -0.67374317
-0.67374317 -8.6565685 -0.67374317
-1.4056431 -8.6565685 -0.67374317
-2.1307343 -8.6565685 -0.67374317
-2.8558282 -8.6565685 -0.67374317
-3.580925 -8.6565685 -0.67374317
-4.3060049 -8.6565685 -0.67374317
-5.0311129 -8.6565685 -0.67374317
-5.7561928 -8.6565685 -0.67374317
-6.4813008 -8.6565685 -0.67374317
-7.2063806 -8.6565685 -0.67374317
-7.9314887 -8.6565685 -0.67374317
-8.6565685 -8.6565685 -0.67374317
-9.3816765 -8.6565685 -0.67374317
-10.106756 -8.6565685 -0.67374317
-10.831864 -8.6565685 -0.67374317
-11.556944 -8.6565685 -0.67374317
-12.282052 -8.6565685 -0.67374317
-13.007132 -8.6565685 -0.67374317
-13.73224 -8.6565685 -0.67374317
-14.464126 -8.6565685 -0.67374317
-0.67374317 -9.3816765 -0.67374317
-1.4056431 -9.3816765 -0.67374317
-2.1307343 -9.3816765 -0.67374317
-2.8558282 -9.3816765 -0.67374317
-3.580925 -9.3816765 -0.67374317
-4.3060049 -9.3816765 -0.67374317
-5.0311129 -9.3816765 -0.67374317
-5.7561928 -9.3816765 -0.67374317
-6.4813008 -9.3816765 -0.67374317
-7.2063806 -9.3816765 -0.67374317
-7.9314887 -9.3816765 -0.67374317
-8.6565685 -9.3816765 -0.67374317
-9.3816765 -9.3816765 -0.67374317
-10.106756 -9.3816765 -0.67374317
-10.831864 -9.3816765 -0.67374317
-11.556944 -9.3816765 -0.67374317
-12.282052 -9.3816765 -0.67374317
-13.007132 -9.3816765 -0.67374317
-13.73224 -9.3816765 -0.67374317
-14.464126 -9.3816765 -0.67374317
-0.67374317 -10.106756 -0.67374317
-1.4056431 -10.106756 -0.67374317
-2.1307343 -10.106756 -0.67374317
-2.8558282 -10.106756 -0.67374317
-3.580925 -10.106756 -0.67374317
-4.3060049 -10.106756 -0.67374317
-5.0311129 -10.106756 -0.67374317
-5.7561928 -10.106756 -0.67374317
-6.4813008 -10.106756 -0.67374317
-7.2063806 -10.106756 -0.67374317
-7.9314887 -10.106756 -0.67374317
-8.6565685 -10.106756 -0.67374317
-9.3816765 -10.106756 -0.67374317
-10.106756 -10.106756 -0.67374317
-10.831864 -10.106756 -0.67374317
-11.556944 -10.106756 -0.67374317
-12.282052 -10.106756 -0.67374317
-13.007132 -10.106756 -0.67374317
-13.73224 -10.106756 -0.67374317
-14.464126 -10.106756 -0.67374317
-0.67374317 -10.831864 -0.67374317
-1.4056431 -10.831864 -0.67374317
-2.1307343 -10.831864 -0.67374317
-2.8558282 -10.831864 -0.67374317
-3.580925 -10.831864 -0.67374317
-4.3060049 -10.831864 -0.67374317
-5.0311129 -10.831864 -0.67374317
-5.7561928 -10.831864 -0.67374317
-6.4813008 -10.831864 -0.67374317
-7.2063806 -10.831864 -0.67374317
-7.9314887 -10.831864 -0.67374317
-8.6565685 -10.831864 -0.67374317
-9.3816765 -10.831864 -0.67374317
-10.106756 -10.831864 -0.67374317
-10.831864 -10.831864 -0.67374317
-11.556944 -10.831864 -0.67374317
-12.282052 -10.831864 -0.67374317
-13.007132 -10.831864 -0.67374317
-13.73224 -10.831864 -0.67374317
-14.464126 -10.831864 -0.67374317
-0.67374317 -11.556944 -0.67374317
-1.4056431 -11.556944 -0.67374317
-2.1307343 -11.556944 -0.67374317
-2.8558282 -11.556944 -0.67374317
-3.580925 -11.556944 -0.67374317
-4.3060049 -11.556944 -0.67374317
-5.0311129 -11.556944 -0.67374317
-5.7561928 -11.556944 -0.67374317
-6.4813008 -11.556944 -0.67374317
-7.2063806 -11.556944 -0.67374317
-7.9314887 -11.556944 -0.67374317
-8.6565685 -11.556944 -0.67374317
-9.3816765 -11.556944 -0.67374317
-10.106756 -11.556944 -0.67374317
-10.831864 -11.556944 -0.67374317
-11.556944 -11.556944 -0.67374317
-12.282052 -11.556944 -0.67374317
-13.007132 -11.556944 -0.67374317
-13.73224 -11.556944 -0.67374317
-14.464126 -11.556944 -0.67374317
-0.67374317 -12.282052 -0.67374317
-1.4056431 -12.282052 -0.67374317
-2.1307343 -12.282052 -0.67374317
-2.8558282 -12.282052 -0.67374317
-3.580925 -12.282052 -0.67374317
-4.3060049 -12.282052 -0.67374317
-5.0311129 -12.282052 -0.67374317
-5.7561928 -12.282052 -0.67374317
-6.4813008 -12.282052 -0.67374317
-7.2063806 -12.282052 -0.67374317
-7.9314887 -12.282052 -0.67374317
-8.6565685 -12.282052 -0.67374317
-9.3816765 -12.282052 -0.67374317
-10.106756 -12.282052 -0.67374317
-10.831864 -12.282052 -0.67374317
-11.556944 -12.282052 -0.67374317
-12.282052 -12.282052 -0.67374317
-13.007132 -12.282052 -0.67374317
-13.73224 -12.282052 -0.67374317
-14.464126 -12.282052 -0.67374317
-0.67374317 -13.007132 -0.67374317
-1.4056431 -13.007132 -0.67374317
-2.1307343 -13.007132 -0.67374317
-2.8558282 -13.007132 -0.67374317
-3.580925 -13.007132 -0.67374317
-4.3060049 -13.007132 -0.67374317
-5.0311129 -13.007132 -0.67374317
-5.7561928 -13.007132 -0.67374317
-6.4813008 -13.007132 -0.67374317
-7.2063806 -13.007132 -0.67374317
-7.9314887 -13.007132 -0.67374317
-8.6565685 -13.007132 -0.67374317
-9.3816765 -13.007132 -0.67374317
-10.106756 -13.007132 -0.67374317
-10.831864 -13.007132 -0.67374317
-11.556944 -13.007132 -0.67374317
-12.282052 -13.007132 -0.67374317
-13.007132 -13.007132 -0.67374317
-13.73224 -13.007132 -0.67374317
-14.464126 -13.007132 -0.67374317
-0.67374317 -13.73224 -0.67374317
-1.4056431 -13.73224 -0.67374317
-2.1307343 -13.73224 -0.67374317
-2.8558282 -13.73224 -0.67374317
-3.580925 -13.73224 -0.67374317
-4.3060049 -13.73224 -0.67374317
-5.0311129 -13.73224 -0.67374317
-5.7561928 -13.73224 -0.67374317
-6.4813008 -13.73224 -0.67374317
-7.2063806 -13.73224 -0.67374317
-7.9314887 -13.73224 -0.67374317
-8.6565685 -13.73224 -0.67374317
-9.3816765 -13.73224 -0.67374317
-10.106756 -13.73224 -0.67374317
-10.831864 -13.73224 -0.67374317
-11.556944 -13.73224 -0.67374317
-12.282052 -13.73224 -0.67374317
-13.007132 -13.73224 -0.67374317
-13.73224 -13.73224 -0.67374317
-14.464126 -13.73224 -0.67374317
-0.67374317 -14.464126 -0.67374317
-1.4056431 -14.464126 -0.67374317
-2.1307343 -14.464126 -0.67374317
-2.8558282 -14.464126 -0.67374317
-3.580925 -14.464126 -0.67374317
-4.3060049 -14.464126 -0.67374317
-5.0311129 -14.464126 -0.67374317
-5.7561928 -14.464126 -0.67374317
-6.4813008 -14.464126 -0.67374317
-7.2063806 -14.464126 -0.67374317
-7.9314887 -14.464126 -0.67374317
-8.6565685 -14.464126 -0.67374317
-9.3816765 -14.464126 -0.67374317
-10.106756 -14.464126 -0.67374317
-10.831864 -14.464126 -0.67374317
-11.556944 -14.464126 -0.67374317
-12.282052 -14.464126 -0.67374317
-13.007132 -14.464126 -0.67374317
-13.73224 -14.464126 -0.67374317
-14.464126 -14.464126 -0.67374317
-0.67374317 -0.67374317 -1.4056431
-1.4056431 -0.67374317 -1.4056431
-2.1307343 -0.67374317 -1.4056431
-2.8558282 -0.67374317 -1.4056431
-3.580925 -0.67374317 -1.4056431
-4.3060049 -0.67374317 -1.4056431
-5.0311129 -0.67374317 -1.4056431
-5.7561928 -0.67374317 -1.4056431
-6.4813008 -0.67374317 -1.4056431
-7.2063806 -0.67374317 -1.4056431