# vtk DataFile Version 4.0
hesp visualization file
ASCII
DATASET UNSTRUCTURED_GRID
POINTS 3000 double
0.088062685 0.088062685 0.088062685
2.2198289 0.088062685 0.088062685
4.3555973 0.088062685 0.088062685
6.491374 0.088062685 0.088062685
8.6271589 0.088062685 0.088062685
10.762894 0.088062685 0.088062685
12.898712 0.088062685 0.088062685
15.034448 0.088062685 0.088062685
17.170266 0.088062685 0.088062685
19.306001 0.088062685 0.088062685
21.441819 0.088062685 0.088062685
23.577554 0.088062685 0.088062685
25.713372 0.088062685 0.088062685
27.849108 0.088062685 0.088062685
29.984926 0.088062685 0.088062685
32.120661 0.088062685 0.088062685
34.256479 0.088062685 0.088062685
36.392214 0.088062685 0.088062685
38.528033 0.088062685 0.088062685
40.659757 0.088062685 0.088062685
0.088062685 2.2198289 0.088062685
2.2198289 2.2198289 0.088062685
4.3555973 2.2198289 0.088062685
6.491374 2.2198289 0.088062685
8.6271589 2.2198289 0.088062685
10.762894 2.2198289 0.088062685
12.898712 2.2198289 0.088062685
15.034448 2.2198289 0.088062685
17.170266 2.2198289 0.088062685
19.306001 2.2198289 0.088062685
21.441819 2.2198289 0.088062685
23.577554 2.2198289 0.088062685
25.713372 2.2198289 0.088062685
27.849108 2.2198289 0.088062685
29.984926 2.2198289 0.088062685
32.120661 2.2198289 0.088062685
34.256479 2.2198289 0.088062685
36.392214 2.2198289 0.088062685
38.528033 2.2198289 0.088062685
40.659757 2.2198289 0.088062685
0.088062685 4.3555973 0.088062685
2.2198289 4.3555973 0.088062685
4.3555973 4.3555973 0.088062685
6.491374 4.3555973 0.088062685
8.6271589 4.3555973 0.088062685
10.762894 4.3555973 0.088062685
12.898712 4.3555973 0.088062685
15.034448 4.3555973 0.088062685
17.170266 4.3555973 0.088062685
19.306001 4.3555973 0.088062685
21.441819 4.3555973 0.088062685
23.577554 4.3555973 0.088062685
25.713372 4.3555973 0.088062685
27.849108 4.3555973 0.088062685
29.984926 4.3555973 0.088062685
32.120661 4.3555973 0.088062685
34.256479 4.3555973 0.088062685
36.392214 4.3555973 0.088062685
38.528033 4.3555973 0.088062685
40.659757 4.3555973 0.088062685
0.088062685 6.491374 0.088062685
2.2198289 6.491374 0.088062685
4.3555973 6.491374 0.088062685
6.491374 6.491374 0.088062685
8.6271589 6.491374 0.088062685
10.762894 6.491374 0.088062685
12.898712 6.491374 0.088062685
15.034448 6.491374 0.088062685
17.170266 6.491374 0.088062685
19.306001 6.491374 0.088062685
21.441819 6.491374 0.088062685
23.577554 6.491374 0.088062685
25.713372 6.491374 0.088062685
27.849108 6.491374 0.088062685
29.984926 6.491374 0.088062685
32.120661 6.491374 0.088062685
34.256479 6.491374 0.088062685
36.392214 6.491374 0.088062685
38.528033 6.491374 0.088062685
40.659757 6.491374 0.088062685
0.088062685 8.6271589 0.088062685
2.2198289 8.6271589 0.088062685
4.3555973 8.6271589 0.088062685
6.491374 8.6271589 0.088062685
8.6271589 8.6271589 0.088062685
10.762894 8.6271589 0.088062685
12.898712 8.6271589 0.088062685
15.034448 8.6271589 0.088062685
17.170266 8.6271589 0.088062685
19.306001 8.6271589 0.088062685
21.441819 8.6271589 0.088062685
23.577554 8.6271589 0.088062685
25.713372 8.6271589 0.088062685
27.849108 8.6271589 0.088062685
29.984926 8.6271589 0.088062685
32.120661 8.6271589 0.088062685
34.256479 8.6271589 0.088062685
36.392214 8.6271589 0.088062685
38.528033 8.6271589 0.088062685
40.659757 8.6271589 0.088062685
0.088062685 10.762894 0.088062685
2.2198289 10.762894 0.088062685
4.3555973 10.762894 0.088062685
6.491374 10.762894 0.088062685
8.6271589 10.762894 0.088062685
10.762894 10.762894 0.088062685
12.898712 10.762894 0.088062685
15.034448 10.762894 0.088062685
17.170266 10.762894 0.088062685
19.306001 10.762894 0.088062685
21.441819 10.762894 0.088062685
23.577554 10.762894 0.088062685
25.713372 10.762894 0.088062685
27.849108 10.762894 0.088062685
29.984926 10.762894 0.088062685
32.120661 10.762894 0.088062685
34.256479 10.762894 0.088062685
36.392214 10.762894 0.088062685
38.528033 10.762894 0.088062685
40.659757 10.762894 0.088062685
0.088062685 12.898712 0.088062685
2.2198289 12.898712 0.088062685
4.3555973 12.898712 0.088062685
6.491374 12.898712 0.088062685
8.6271589 12.898712 0.088062685
10.762894 12.898712 0.088062685
12.898712 12.898712 0.088062685
15.034448 12.898712 0.088062685
17.170266 12.898712 0.088062685
19.306001 12.898712 0.088062685
21.441819 12.898712 0.088062685
23.577554 12.898712 0.088062685
25.713372 12.898712 0.088062685
27.849108 12.898712 0.088062685
29.984926 12.898712 0.088062685
32.120661 12.898712 0.088062685
34.256479 12.898712 0.088062685
36.392214 12.898712 0.088062685
38.528033 12.898712 0.088062685
40.659757 12.898712 0.088062685
0.088062685 15.034448 0.088062685
2.2198289 15.034448 0.088062685
4.3555973 15.034448 0.088062685
6.491374 15.034448 0.088062685
8.6271589 15.034448 0.088062685
10.762894 15.034448 0.088062685
12.898712 15.034448 0.088062685
15.034448 15.034448 0.088062685
17.170266 15.034448 0.088062685
19.306001 15.034448 0.088062685
21.441819 15.034448 0.088062685
23.577554 15.034448 0.088062685
25.713372 15.034448 0.088062685
27.849108 15.034448 0.088062685
29.984926 15.034448 0.088062685
32.120661 15.034448 0.088062685
34.256479 15.034448 0.088062685
36.392214 15.034448 0.088062685
38.528033 15.034448 0.088062685
40.659757 15.034448 0.088062685
0.088062685 17.170266 0.088062685
2.2198289 17.170266 0.088062685
4.3555973 17.170266 0.088062685
6.491374 17.170266 0.088062685
8.6271589 17.170266 0.088062685
10.762894 17.170266 0.088062685
12.898712 17.170266 0.088062685
15.034448 17.170266 0.088062685
17.170266 17.170266 0.088062685
19.306001 17.170266 0.088062685
21.441819 17.170266 0.088062685
23.577554 17.170266 0.088062685
25.713372 17.170266 0.088062685
27.849108 17.170266 0.088062685
29.984926 17.170266 0.088062685
32.120661 17.170266 0.088062685
34.256479 17.170266 0.088062685
36.392214 17.170266 0.088062685
38.528033 17.170266 0.088062685
40.659757 17.170266 0.088062685
0.088062685 19.306001 0.088062685
2.2198289 19.306001 0.088062685
4.3555973 19.306001 0.088062685
6.491374 19.306001 0.088062685
8.6271589 19.306001 0.088062685
10.762894 19.306001 0.088062685
12.898712 19.306001 0.088062685
15.034448 19.306001 0.088062685
17.170266 19.306001 0.088062685
19.306001 19.306001 0.088062685
21.441819 19.306001 0.088062685
23.577554 19.306001 0.088062685
25.713372 19.306001 0.088062685
27.849108 19.306001 0.088062685
29.984926 19.306001 0.088062685
32.120661 19.306001 0.088062685
34.256479 19.306001 0.088062685
36.392214 19.306001 0.088062685
38.528033 19.306001 0.088062685
40.659757 19.306001 0.088062685
0.088062685 21.441819 0.088062685
2.2198289 21.441819 0.088062685
4.3555973 21.441819 0.088062685
6.491374 21.441819 0.088062685
8.6271589 21.441819 0.088062685
10.762894 21.441819 0.088062685
12.898712 21.441819 0.088062685
15.034448 21.441819 0.088062685
17.170266 21.441819 0.088062685
19.306001 21.441819 0.088062685
21.441819 21.441819 0.088062685
23.577554 21.441819 0.088062685
25.713372 21.441819 0.088062685
27.849108 21.441819 0.088062685
29.984926 21.441819 0.088062685
32.120661 21.441819 0.088062685
34.256479 21.441819 0.088062685
36.392214 21.441819 0.088062685
38.528033 21.441819 0.088062685
40.659757 21.441819 0.088062685
0.088062685 23.577554 0.088062685
2.2198289 23.577554 0.088062685
4.3555973 23.577554 0.088062685
6.491374 23.577554 0.088062685
8.6271589 23.577554 0.088062685
10.762894 23.577554 0.088062685
12.898712 23.577554 0.088062685
15.034448 23.577554 0.088062685
17.170266 23.577554 0.088062685
19.306001 23.577554 0.088062685
21.441819 23.577554 0.088062685
23.577554 23.577554 0.088062685
25.713372 23.577554 0.088062685
27.849108 23.577554 0.088062685
29.984926 23.577554 0.088062685
32.120661 23.577554 0.088062685
34.256479 23.577554 0.088062685
36.392214 23.577554 0.088062685
38.528033 23.577554 0.088062685
40.659757 23.577554 0.088062685
0.088062685 25.713372 0.088062685
2.2198289 25.713372 0.088062685
4.3555973 25.713372 0.088062685
6.491374 25.713372 0.088062685
8.6271589 25.713372 0.088062685
10.762894 25.713372 0.088062685
12.898712 25.713372 0.088062685
15.034448 25.713372 0.088062685
17.170266 25.713372 0.088062685
19.306001 25.713372 0.088062685
21.441819 25.713372 0.088062685
23.577554 25.713372 0.088062685
25.713372 25.713372 0.088062685
27.849108 25.713372 0.088062685
29.984926 25.713372 0.088062685
32.120661 25.713372 0.088062685
34.256479 25.713372 0.088062685
36.392214 25.713372 0.088062685
38.528033 25.713372 0.088062685
40.659757 25.713372 0.088062685
0.088062685 27.849108 0.088062685
2.2198289 27.849108 0.088062685
4.3555973 27.849108 0.088062685
6.491374 27.849108 0.088062685
8.6271589 27.849108 0.088062685
10.762894 27.849108 0.088062685
12.898712 27.849108 0.088062685
15.034448 27.849108 0.088062685
17.170266 27.849108 0.088062685
19.306001 27.849108 0.088062685
21.441819 27.849108 0.088062685
23.577554 27.849108 0.088062685
25.713372 27.849108 0.088062685
27.849108 27.849108 0.088062685
29.984926 27.849108 0.088062685
32.120661 27.849108 0.088062685
34.256479 27.849108 0.088062685
36.392214 27.849108 0.088062685
38.528033 27.849108 0.088062685
40.659757 27.849108 0.088062685
0.088062685 29.984926 0.088062685
2.2198289 29.984926 0.088062685
4.3555973 29.984926 0.088062685
6.491374 29.984926 0.088062685
8.6271589 29.984926 0.088062685
10.762894 29.984926 0.088062685
12.898712 29.984926 0.088062685
15.034448 29.984926 0.088062685
17.170266 29.984926 0.088062685
19.306001 29.984926 0.088062685
21.441819 29.984926 0.088062685
23.577554 29.984926 0.088062685
25.713372 29.984926 0.088062685
27.849108 29.984926 0.088062685
29.984926 29.984926 0.088062685
32.120661 29.984926 0.088062685
34.256479 29.984926 0.088062685
36.392214 29.984926 0.088062685
38.528033 29.984926 0.088062685
40.659757 29.984926 0.088062685
0.088062685 32.120661 0.088062685
2.2198289 32.120661 0.088062685
4.3555973 32.120661 0.088062685
6.491374 32.120661 0.088062685
8.6271589 32.120661 0.088062685
10.762894 32.120661 0.088062685
12.898712 32.120661 0.088062685
15.034448 32.120661 0.088062685
[...]
POINT_DATA 3000
SCALARS m double
LOOKUP_TABLE default
1
1
1
1
1
1
1
1
1
1
1
1
1
1
1
1
1
1
1
1
1
1
1
1
1
1
1
1
1
1
1
1
1
1
1
1
1
1
1
1
1
1
1
1
1
1
1
1
1
1
1
1
1
1
1
1
1
1
1
1
1
1
1
1
1
1
1
1
1
1
1
1
1
1
1
1
1
1
1
1
1
1
1
1
1
1
1
1
1
1
1
1
1
1
1
1
1
1
1
1
1
1
1
1
1
1
1
1
1
1
1
1
1
1
1
1
1
1
1
1
1
1
1
1
1
1
1
1
1
1
1
1
1
1
1
1
1
1
1
1
1
1
1
1
1
1
1
1
1
1
1
1
1
1
1
1
1
1
1
1
1
1
1
1
1
1
1
1
1
1
1
1
1
1
1
1
1
1
1
1
1
1
1
1
1
1
1
1
1
1
1
1
1
1
1
1
1
1
1
1
1
1
1
1
1
1
1
1
1
1
1
1
1
1
1
1
1
1
1
1
1
1
1
1
1
1
1
1
1
1
1
1
1
1
1
1
1
1
1
1
1
1
1
1
1
1
1
1
1
1
1
1
1
1
1
1
1
1
1
1
1
1
1
1
1
1
1
1
1
1
1
1
1
1
1
1
1
1
1
1
1
1
1
1
1
1
1
1
1
1
1
1
1
1
1
1
1
1
1
1
1
1
1
1
1
1
1
1
1
1
1
1
1
1
1
1
1
1
1
1
1
1
1
1
1
1
1
1
1
1
1
1
1
1
1
1
1
1
1
1
1
1
1
1
1
1
1
1
1
1
1
1
1
1
1
1
1
1
1
1
1
1
1
1
1
1
1
1
1
1
1
1
1
1
1
1
1
1
1
1
1
1
1
1
1
1
1
1
1
1
1
1
1
1
1
1
1
1
1
1
1
1
1
1
1
1
1
1
1
1
1
1
1
1
1
1
1
1
1
1
1
1
1
1
1
1
1
1
1
1
1
1
1
1
1
1
1
1
1
1
1
1
1
1
1
1
1
1
1
1
1
1
1
1
1
1
1
1
1
1
1
1
1
1
1
1
1
1
1
1
1
1
1
1
1
1
1
1
1
1
1
1
1
1
1
1
1
1
1
1
1
1
1
1
1
1
1
1
1
1
1
1
1
1
1
1
1
1
1
1
1
1
1
1
1
1
1
1
1
1
1
1
1
1
1
1
1
1
1
1
1
1
1
1
1
1
1
1
1
1
1
1
1
1
1
1
1
1
1
1
1
1
1
1
1
1
1
1
1
1
1
1
1
1
1
1
1
1
1
1
1
1
1
1
1
1
1
1
1
1
1
1
1
1
1
1
1
1
1
1
1
1
1
1
1
1
1
1
1
1
1
1
1
1
1
1
1
1
1
1
1
1
1
1
1
1
1
1
1
1
1
1
1
1
1
1
1
1
1
1
1
1
1
1
1
1
1
1
1
1
1
1
1
1
1
1
1
1
1
1
1
1
1
1
1
1
1
1
1
1
1
1
1
1
1
1
1
1
1
1
1
1
1
1
1
1
1
1
1
1
1
1
1
1
1
1
1
1
1
1
1
1
1
1
1
1
1
1
1
1
1
1
1
1
1
1
1
1
1
1
1
1
1
1
1
1
1
1
1
1
1
1
1
1
1
1
1
1
1
1
1
1
1
1
1
1
1
1
1
1
1
1
1
1
1
1
1
1
1
1
1
1
1
1
1
1
1
1
1
1
1
1
1
1
1
1
1
1
1
1
1
1
1
1
1
1
1
1
1
1
1
1
1
1
1
1
1
1
1
1
1
1
1
1
1
1
1
1
1
1
1
1
1
1
1
1
1
1
1
1
1
1
1
1
1
1
1
1
1
1
1
1
1
1
1
1
1
1
1
1
1
1
1
1
1
1
1
1
1
1
1
1
1
1
1
1
1
1
1
1
1
1
1
1
1
1
1
1
1
1
1
1
1
1
1
1
1
1
1
1
1
1
1
1
1
1
1
1
1
1
1
1
1
1
1
1
1
1
1
1
1
1
1
1
1
1
1
1
1
1
1
1
1
1
1
1
1
1
1
1
1
1
1
1
1
1
1
1
1
1
1
1
1
1
1
1
1
1
1
1
1
1
1
1
1
1
1
1
1
1
1
1
1
1
1
1
1
1
1
1
1
1
1
1
1
1
1
1
1
1
1
1
1
1
1
1
1
1
1
1
1
1
1
1
1
1
1
1
1
1
1
1
1
1
1
1
1
1
1
1
1
1
1
1
1
1
1
1
1
1
1
1
1
1
1
1
1
1
1
1
1
1
1
1
1
1
1
1
1
1
1
1
1
1
1
1
1
1
1
1
1
1
1
1
1
1
1
1
1
1
1
1
1
1
1
1
1
1
1
1
1
1
1
1
1
1
1
1
1
1
1
1
1
1
1
1
1
1
1
1
1
1
1
1
1
1
1
1
1
1
1
1
1
1
1
1
1
1
1
1
1
1
1
1
1
1
1
1
1
1
1
1
1
1
1
1
1
1
1
1
1
1
1
1
1
1
1
1
1
1
1
1
1
1
1
1
1
1
1
1
1
1
1
1
1
1
1
1
1
1
1
1
1
1
1
1
1
1
1
1
1
1
1
1
1
1
1
1
1
1
1
1
1
1
1
1
1
1
1
1
1
1
1
1
1
1
1
1
1
1
1
1
1
1
1
1
1
1
1
1
1
1
1
1
1
1
1
1
1
1
1
1
1
1
1
1
1
1
1
1
1
1
1
1
1
1
1
1
1
1
1
1
1
1
1
1
1
1
1
1
1
1
1
1
1
1
1
1
1
1
1
1
1
1
1
1
1
1
1
1
1
1
1
1
1
1
1
1
1
1
1
1
1
1
1
1
1
1
1
1
1
1
1
1
1
1
1
1
1
1
1
1
1
1
1
1
1
1
1
1
1
1
1
1
1
1
1
1
1
1
1
1
1
1
1
1
1
1
1
1
1
1
1
1
1
1
1
1
1
1
1
1
1
1
1
1
1
1
1
1
1
1
1
1
1
1
1
1
1
1
1
1
1
1
1
1
1
1
1
1
1
1
1
1
1
1
1
1
1
1
1
1
1
1
1
1
1
1
1
1
1
1
1
1
1
1
1
1
1
1
1
1
1
1
1
1
1
1
1
1
1
1
1
1
1
1
1
1
1
1
1
1
1
1
1
1
1
1
1
1
1
1
1
1
1
1
1
1
1
1
1
1
1
1
1
1
1
1
1
1
1
1
1
1
1
1
1
1
1
1
1
1
1
1
1
1
1
1
1
1
1
1
1
1
1
1
1
1
1
1
1
1
1
1
1
1
1
1
1
1
1
1
1
1
1
1
1
1
1
1
1
1
1
1
1
1
1
1
1
1
1
1
1
1
1
1
1
1
1
1
1
1
1
1
1
1
1
1
1
1
1
1
1
1
1
1
1
1
1
1
1
1
1
1
1
1
1
1
1
1
1
1
1
1
1
1
1
1
1
1
1
1
1
1
1
1
1
1
1
1
1
1
1
1
1
1
1
1
1
1
1
1
1
1
1
1
1
1
1
1
1
1
1
1
1
1
1
1
1
1
1
1
1
1
1
1
1
1
1
1
1
1
1
1
1
1
1
1
1
1
1
1
1
1
1
1
1
1
1
1
1
1
1
1
1
1
1
1
1
1
1
1
1
1
1
1
1
1
1
1
1
1
1
1
1
1
1
1
1
1
1
1
1
1
1
1
1
1
1
1
1
1
1
1
1
1
1
1
1
1
1
1
1
1
1
1
1
1
1
1
1
1
1
1
1
1
1
1
1
1
1
1
1
1
1
1
1
1
1
1
1
1
1
1
1
1
1
1
1
1
1
1
1
1
1
1
1
1
1
1
1
1
1
1
1
1
1
1
1
1
1
1
1
1
1
1
1
1
1
1
1
1
1
1
1
1
1
1
1
1
1
1
1
1
1
1
1
1
1
1
1
1
1
1
1
1
1
1
1
1
1
1
1
1
1
1
1
1
1
1
1
1
1
1
1
1
1
1
1
1
1
1
1
1
1
1
1
1
1
1
1
1
1
1
1
1
1
1
1
1
1
1
1
1
1
1
1
1
1
1
1
1
1
1
1
1
1
1
1
1
1
1
1
1
1
1
1
1
1
1
1
1
1
1
1
1
1
1
1
1
1
1
1
1
1
1
1
1
1
1
1
1
1
1
1
1
1
1
1
1
1
1
1
1
1
1
1
1
1
1
1
1
1
1
1
1
1
1
1
1
1
1
1
1
1
1
1
1
1
1
1
1
1
1
1
1
1
1
1
1
1
1
1
1
1
1
1
1
1
1
1
1
1
1
1
1
1
1
1
1
1
1
1
1
1
1
1
1
1
1
1
1
1
1
1
1
1
1
1
1
1
1
1
1
1
1
1
1
1
1
1
1
1
1
1
1
1
1
1
1
1
1
1
1
1
1
1
1
1
1
1
1
1
1
1
1
1
1
1
1
1
1
1
1
1
1
1
1
1
1
1
1
1
1
1
1
1
1
1
1
1
1
1
1
1
1
1
1
1
1
1
1
1
1
1
1
1
1
1
1
1
1
1
1
1
1
1
1
1
1
1
1
1
1
1
1
1
1
1
1
1
1
1
1
1
1
1
1
1
1
1
1
1
1
1
1
1
1
1
1
1
1
1
1
1
1
1
1
1
1
1
1
1
1
1
1
1
1
1
1
1
1
1
1
1
1
1
1
1
1
1
1
1
1
1
1
1
1
1
1
1
1
1
1
1
1
1
1
1
1
1
1
1
1
1
1
1
1
1
1
1
1
1
1
1
1
1
1
1
1
1
1
1
1
1
1
1
1
1
1
1
1
1
1
1
1
1
1
1
1
1
1
1
1
1
1
1
1
1
1
1
1
1
1
1
1
1
1
1
1
1
1
1
1
1
1
1
1
1
1
1
1
1
1
1
1
1
1
1
1
1
1
1
1
1
1
1
1
1
1
1
1
1
1
1
1
1
1
1
1
1
1
1
1
1
1
1
1
1
1
1
1
1
1
1
1
1
1
1
1
1
1
1
1
1
1
1
1
1
1
1
1
1
1
1
1
1
1
1
1
1
1
1
1
1
1
1
1
1
1
1
1
1
1
1
1
1
1
1
1
1
1
1
1
1
1
1
1
1
1
1
1
1
1
1
1
1
1
1
1
1
1
1
1
1
1
1
1
1
1
1
1
1
1
1
1
1
1
1
1
1
1
1
1
1
1
1
1
1
1
1
1
1
1
1
1
1
1
1
1
1
1
1
1
1
1
1
1
1
1
1
1
1
1
1
1
1
1
1
1
1
1
1
1
1
1
1
1
1
1
1
1
1
1
1
1
1
1
1
1
1
1
1
1
1
1
1
1
1
1
1
1
1
1
1
1
1
1
1
1
1
1
1
1
1
1
1
1
1
1
1
1
1
1
1
1
1
1
1
1
1
1
1
1
1
1
1
1
1
1
1
1
1
1
1
1
1
1
1
1
1
1
1
1
1
1
1
1
1
1
1
1
1
1
1
1
1
1
1
1
1
1
1
1
1
1
1
1
1
1
1
1
1
1
1
1
1
1
1
1
1
1
1
1
1
1
1
1
1
1
1
1
1
1
1
1
1
1
1
1
1
1
1
1
1
1
1
1
1
1
1
1
1
1
1
1
1
1
1
1
1
1
1
1
1
1
1
1
1
1
1
1
1
1
1
1
1
1
1
1
1
1
1
1
1
1
1
1
1
1
1
1
1
1
1
1
1
1
1
1
1
1
1
1
1
1
1
1
1
1
1
1
1
1
1
1
1
1
1
1
1
1
1
1
1
1
1
1
1
1
1
1
1
1
1
1
1
1
1
1
1
1
1
1
1
1
1
1
1
1
1
1
1
1
1
1
1
1
1
1
1
1
1
1
1
1
1
1
1
1
1
1
1
1
1
1
1
1
1
1
1
1
1
1
1
1
1
1
1
1
1
1
1
1
1
1
1
1
1
1
1
1
1
1
1
1
1
1
1
1
1
1
1
1
1
1
1
1
1
1
1
1
1
1
1
1
1
1
1
1
1
1
1
1
1
1
1
1
1
1
1
1
1
1
1
1
1
1
1
1
1
1
1
1
1
1
1
1
1
1
1
1
1
1
1
1
1
1
1
1
1
1
1
1
1
1
1
1
1
1
1
1
1
1
1
1
1
1
1
1
1
1
1
1
1
1
1
1
1
1
1
1
1
1
1
1
1
1
1
1
1
1
1
1
1
1
1
1
1
1
1
1
1
1
1
1
1
1
1
1
1
1
1
1
1
1
1
1
1
1
1
1
1
1
1
1
1
1
1
1
1
1
1
1
1
1
1
1
1
1
1
1
1
1
1
1
1
1
1
1
1
1
1
1
1
1
1
1
1
1
1
1
1
1
1
1
1
1
1
1
1
1
1
1
1
1
1
1
1
1
1
1
1
1
1
1
1
1
1
1
1
1
1
1
1
1
1
1
1
1
1
1
1
1
1
1
1
1
1
1
1
1
1
1
1
1
1
1
1
1
1
1
1
1
1
1
1
1
1
1
1
1
1
1
1
1
1
1
1
1
1
1
1
1
1
1
1
1
1
1
1
1
1
1
1
1
1
1
1
1
1
1
1
1
1
1
1
1
1
1
1
1
1
1
1
1
1
1
1
1
1
1
1
1
1
1
1
1
1
1
1
1
1
1
1
1
1
1
1
1
1
1
1
1
1
1
1
1
1
1
1
1
1
1
1
1
1
1
1
1
1
1
1
1
1
1
1
1
1
1
VECTORS v double
-1.350864 -1.350864 -1.350864
-2.8022553 -1.350864 -1.350864
-4.2477791 -1.350864 -1.350864
-5.6933084 -1.350864 -1.350864
-7.1388434 -1.350864 -1.350864
-8.5843447 -1.350864 -1.350864
-10.029902 -1.350864 -1.350864
-11.475403 -1.350864 -1.350864
-12.920961 -1.350864 -1.350864
-14.366462 -1.350864 -1.350864
-15.812019 -1.350864 -1.350864
-17.257521 -1.350864 -1.350864
-18.703078 -1.350864 -1.350864
-20.148579 -1.350864 -1.350864
-21.594137 -1.350864 -1.350864
-23.039638 -1.350864 -1.350864
-24.485196 -1.350864 -1.350864
-25.930697 -1.350864 -1.350864
-27.376254 -1.350864 -1.350864
-28.827618 -1.350864 -1.350864
-1.350864 -2.8022553 -1.350864
-2.8022553 -2.8022553 -1.350864
-4.2477791 -2.8022553 -1.350864
-5.6933084 -2.8022553 -1.350864
-7.1388434 -2.8022553 -1.350864
-8.5843447 -2.8022553 -1.350864
-10.029902 -2.8022553 -1.350864
-11.475403 -2.8022553 -1.350864
-12.920961 -2.8022553 -1.350864
-14.366462 -2.8022553 -1.350864
-15.812019 -2.8022553 -1.350864
-17.257521 -2.8022553 -1.350864
-18.703078 -2.8022553 -1.350864
-20.148579 -2.8022553 -1.350864
-21.594137 -2.8022553 -1.350864
-23.039638 -2.8022553 -1.350864
-24.485196 -2.8022553 -1.350864
-25.930697 -2.8022553 -1.350864
-27.376254 -2.8022553 -1.350864
-28.827618 -2.8022553 -1.350864
-1.350864 -4.2477791 -1.350864
-2.8022553 -4.2477791 -1.350864
-4.2477791 -4.2477791 -1.350864
-5.6933084 -4.2477791 -1.350864
-7.1388434 -4.2477791 -1.350864
-8.5843447 -4.2477791 -1.350864
-10.029902 -4.2477791 -1.350864
-11.475403 -4.2477791 -1.350864
-12.920961 -4.2477791 -1.350864
-14.366462 -4.2477791 -1.350864
-15.812019 -4.2477791 -1.350864
-17.257521 -4.2477791 -1.350864
-18.703078 -4.2477791 -1.350864
-20.148579 -4.2477791 -1.350864
-21.594137 -4.2477791 -1.350864
-23.039638 -4.2477791 -1.350864
-24.485196 -4.2477791 -1.350864
-25.930697 -4.2477791 -1.350864
-27.376254 -4.2477791 -1.350864
-28.827618 -4.2477791 -1.350864
-1.350864 -5.6933084 -1.350864
-2.8022553 -5.6933084 -1.350864
-4.2477791 -5.6933084 -1.350864
-5.6933084 -5.6933084 -1.350864
-7.1388434 -5.6933084 -1.350864
-8.5843447 -5.6933084 -1.350864
-10.029902 -5.6933084 -1.350864
-11.475403 -5.6933084 -1.350864
-12.920961 -5.6933084 -1.350864
-14.366462 -5.6933084 -1.350864
-15.812019 -5.6933084 -1.350864
-17.257521 -5.6933084 -1.350864
-18.703078 -5.6933084 -1.350864
-20.148579 -5.6933084 -1.350864
-21.594137 -5.6933084 -1.350864
-23.039638 -5.6933084 -1.350864
-24.485196 -5.6933084 -1.350864
-25.930697 -5.6933084 -1.350864
-27.376254 -5.6933084 -1.350864
-28.827618 -5.6933084 -1.350864
-1.350864 -7.1388434 -1.350864
-2.8022553 -7.1388434 -1.350864
-4.2477791 -7.1388434 -1.350864
-5.6933084 -7.1388434 -1.350864
-7.1388434 -7.1388434 -1.350864
-8.5843447 -7.1388434 -1.350864
-10.029902 -7.1388434 -1.350864
-11.475403 -7.1388434 -1.350864
-12.920961 -7.1388434 -1.350864
-14.366462 -7.1388434 -1.350864
-15.812019 -7.1388434 -1.350864
-17.257521 -7.1388434 -1.350864
-18.703078 -7.1388434 -1.350864
-20.148579 -7.1388434 -1.350864
-21.594137 -7.1388434 -1.350864
-23.039638 -7.1388434 -1.350864
-24.485196 -7.1388434 -1.350864
-25.930697 -7.1388434 -1.350864
-27.376254 -7.1388434 -1.350864
-28.827618 -7.1388434 -1.350864
-1.350864 -8.5843447 -1.350864
-2.8022553 -8.5843447 -1.350864
-4.2477791 -8.5843447 -1.350864
-5.6933084 -8.5843447 -1.350864
-7.1388434 -8.5843447 -1.350864
-8.5843447 -8.5843447 -1.350864
-10.029902 -8.5843447 -1.350864
-11.475403 -8.5843447 -1.350864
-12.920961 -8.5843447 -1.350864
-14.366462 -8.5843447 -1.350864
-15.812019 -8.5843447 -1.350864
-17.257521 -8.5843447 -1.350864
-18.703078 -8.5843447 -1.350864
-20.148579 -8.5843447 -1.350864
-21.594137 -8.5843447 -1.350864
-23.039638 -8.5843447 -1.350864
-24.485196 -8.5843447 -1.350864
-25.930697 -8.5843447 -1.350864
-27.376254 -8.5843447 -1.350864
-28.827618 -8.5843447 -1.350864
-1.350864 -10.029902 -1.350864
-2.8022553 -10.029902 -1.350864
-4.2477791 -10.029902 -1.350864
-5.6933084 -10.029902 -1.350864
-7.1388434 -10.029902 -1.350864
-8.5843447 -10.029902 -1.350864
-10.029902 -10.029902 -1.350864
-11.475403 -10.029902 -1.350864
-12.920961 -10.029902 -1.350864
-14.366462 -10.029902 -1.350864
-15.812019 -10.029902 -1.350864
-17.257521 -10.029902 -1.350864
-18.703078 -10.029902 -1.350864
-20.148579 -10.029902 -1.350864
-21.594137 -10.029902 -1.350864
-23.039638 -10.029902 -1.350864
-24.485196 -10.029902 -1.350864
-25.930697 -10.029902 -1.350864
-27.376254 -10.029902 -1.350864
-28.827618 -10.029902 -1.350864
-1.350864 -11.475403 -1.350864
-2.8022553 -11.475403 -1.350864
-4.2477791 -11.475403 -1.350864
-5.6933084 -11.475403 -1.350864
-7.1388434 -11.475403 -1.350864
-8.5843447 -11.475403 -1.350864
-10.029902 -11.475403 -1.350864
-11.475403 -11.475403 -1.350864
-12.920961 -11.475403 -1.350864
-14.366462 -11.475403 -1.350864
-15.812019 -11.475403 -1.350864
-17.257521 -11.475403 -1.350864
-18.703078 -11.475403 -1.350864
-20.148579 -11.475403 -1.350864
-21.594137 -11.475403 -1.350864
-23.039638 -11.475403 -1.350864
-24.485196 -11.475403 -1.350864
-25.930697 -11.475403 -1.350864
-27.376254 -11.475403 -1.350864
-28.827618 -11.475403 -1.350864
-1.350864 -12.920961 -1.350864
-2.8022553 -12.920961 -1.350864
-4.2477791 -12.920961 -1.350864
-5.6933084 -12.920961 -1.350864
-7.1388434 -12.920961 -1.350864
-8.5843447 -12.920961 -1.350864
-10.029902 -12.920961 -1.350864
-11.475403 -12.920961 -1.350864
-12.920961 -12.920961 -1.350864
-14.366462 -12.920961 -1.350864
-15.812019 -12.920961 -1.350864
-17.257521 -12.920961 -1.350864
-18.703078 -12.920961 -1.350864
-20.148579 -12.920961 -1.350864
-21.594137 -12.920961 -1.350864
-23.039638 -12.920961 -1.350864
-24.485196 -12.920961 -1.350864
-25.930697 -12.920961 -1.350864
-27.376254 -12.920961 -1.350864
-28.827618 -12.920961 -1.350864
-1.350864 -14.366462 -1.350864
-2.8022553 -14.366462 -1.350864
-4.2477791 -14.366462 -1.350864
-5.6933084 -14.366462 -1.350864
-7.1388434 -14.366462 -1.350864
-8.5843447 -14.366462 -1.350864
-10.029902 -14.366462 -1.350864
-11.475403 -14.366462 -1.350864
-12.920961 -14.366462 -1.350864
-14.366462 -14.366462 -1.350864
-15.812019 -14.366462 -1.350864
-17.257521 -14.366462 -1.350864
-18.703078 -14.366462 -1.350864
-20.148579 -14.366462 -1.350864
-21.594137 -14.366462 -1.350864
-23.039638 -14.366462 -1.350864
-24.485196 -14.366462 -1.350864
-25.930697 -14.366462 -1.350864
-27.376254 -14.366462 -1.350864
-28.827618 -14.366462 -1.350864
-1.350864 -15.812019 -1.350864
-2.8022553 -15.812019 -1.350864
-4.2477791 -15.812019 -1.350864
-5.6933084 -15.812019 -1.350864
-7.1388434 -15.812019 -1.350864
-8.5843447 -15.812019 -1.350864
-10.029902 -15.812019 -1.350864
-11.475403 -15.812019 -1.350864
-12.920961 -15.812019 -1.350864
-14.366462 -15.812019 -1.350864
-15.812019 -15.812019 -1.350864
-17.257521 -15.812019 -1.350864
-18.703078 -15.812019 -1.350864
-20.148579 -15.812019 -1.350864
-21.594137 -15.812019 -1.350864
-23.039638 -15.812019 -1.350864
-24.485196 -15.812019 -1.350864
-25.930697 -15.812019 -1.350864
-27.376254 -15.812019 -1.350864
-28.827618 -15.812019 -1.350864
-1.350864 -17.257521 -1.350864
-2.8022553 -17.257521 -1.350864
-4.2477791 -17.257521 -1.350864
-5.6933084 -17.257521 -1.350864
-7.1388434 -17.257521 -1.350864
-8.5843447 -17.257521 -1.350864
-10.029902 -17.257521 -1.350864
-11.475403 -17.257521 -1.350864
-12.920961 -17.257521 -1.350864
-14.366462 -17.257521 -1.350864
-15.812019 -17.257521 -1.350864
-17.257521 -17.257521 -1.350864
-18.703078 -17.257521 -1.350864
-20.148579 -17.257521 -1.350864
-21.594137 -17.257521 -1.350864
-23.039638 -17.257521 -1.350864
-24.485196 -17.257521 -1.350864
-25.930697 -17.257521 -1.350864
-27.376254 -17.257521 -1.350864
-28.827618 -17.257521 -1.350864
-1.350864 -18.703078 -1.350864
-2.8022553 -18.703078 -1.350864
-4.2477791 -18.703078 -1.350864
-5.6933084 -18.703078 -1.350864
-7.1388434 -18.703078 -1.350864
-8.5843447 -18.703078 -1.350864
-10.029902 -18.703078 -1.350864
-11.475403 -18.703078 -1.350864
-12.920961 -18.703078 -1.350864
-14.366462 -18.703078 -1.350864
-15.812019 -18.703078 -1.350864
-17.257521 -18.703078 -1.350864
-18.703078 -18.703078 -1.350864
-20.148579 -18.703078 -1.350864
-21.594137 -18.703078 -1.350864
-23.039638 -18.703078 -1.350864
-24.485196 -18.703078 -1.350864
-25.930697 -18.703078 -1.350864
-27.376254 -18.703078 -1.350864
-28.827618 -18.703078 -1.350864
-1.350864 -20.148579 -1.350864
-2.8022553 -20.148579 -1.350864
-4.2477791 -20.148579 -1.350864
-5.6933084 -20.148579 -1.350864
-7.1388434 -20.148579 -1.350864
-8.5843447 -20.148579 -1.350864
-10.029902 -20.148579 -1.350864
-11.475403 -20.148579 -1.350864
-12.920961 -20.148579 -1.350864
-14.366462 -20.148579 -1.350864
-15.812019 -20.148579 -1.350864
-17.257521 -20.148579 -1.350864
-18.703078 -20.148579 -1.350864
-20.148579 -20.148579 -1.350864
-21.594137 -20.148579 -1.350864
-23.039638 -20.148579 -1.350864
-24.485196 -20.148579 -1.350864
-25.930697 -20.148579 -1.350864
-27.376254 -20.148579 -1.350864
-28.827618 -20.148579 -1.350864
-1.350864 -21.594137 -1.350864
-2.8022553 -21.594137 -1.350864
-4.2477791 -21.594137 -1.350864
-5.6933084 -21.594137 -1.350864
-7.1388434 -21.594137 -1.350864
-8.5843447 -21.594137 -1.350864
-10.029902 -21.594137 -1.350864
-11.475403 -21.594137 -1.350864
-12.920961 -21.594137 -1.350864
-14.366462 -21.594137 -1.350864
-15.812019 -21.594137 -1.350864
-17.257521 -21.594137 -1.350864
-18.703078 -21.594137 -1.350864
-20.148579 -21.594137 -1.350864
-21.594137 -21.594137 -1.350864
-23.039638 -21.594137 -1.350864
-24.485196 -21.594137 -1.350864
-25.930697 -21.594137 -1.350864
-27.376254 -21.594137 -1.350864
-28.827618 -21.594137 -1.350864
-1.350864 -23.039638 -1.350864
-2.8022553 -23.039638 -1.350864
-4.2477791 -23.039638 -1.350864
-5.6933084 -23.039638 -1.350864
-7.1388434 -23.039638 -1.350864
-8.5843447 -23.039638 -1.350864
-10.029902 -23.039638 -1.350864
-11.475403 -23.039638 -1.350864
-12.920961 -23.039638 -1.350864
-14.366462 -23.039638 -1.350864
-15.812019 -23.039638 -1.350864
-17.257521 -23.039638 -1.350864
-18.703078 -23.039638 -1.350864
-20.148579 -23.039638 -1.350864
-21.594137 -23.039638 -1.350864
-23.039638 -23.039638 -1.350864
-24.485196 -23.039638 -1.350864
-25.930697 -23.039638 -1.350864
-27.376254 -23.039638 -1.350864
-28.827618 -23.039638 -1.350864
-1.350864 -24.485196 -1.350864
-2.8022553 -24.485196 -1.350864
-4.2477791 -24.485196 -1.350864
-5.6933084 -24.485196 -1.350864
-7.1388434 -24.485196 -1.350864
-8.5843447 -24.485196 -1.350864
-10.029902 -24.485196 -1.350864
-11.475403 -24.485196 -1.350864
-12.920961 -24.485196 -1.350864
-14.366462 -24.485196 -1.350864
-15.812019 -24.485196 -1.350864
-17.257521 -24.485196 -1.350864
-18.703078 -24.485196 -1.350864
-20.148579 -24.485196 -1.350864
-21.594137 -24.485196 -1.350864
-23.039638 -24.485196 -1.350864
-24.485196 -24.485196 -1.350864
-25.930697 -24.485196 -1.350864
-27.376254 -24.485196 -1.350864
-28.827618 -24.485196 -1.350864
-1.350864 -25.930697 -1.350864
-2.8022553 -25.930697 -1.350864
-4.2477791 -25.930697 -1.350864
-5.6933084 -25.930697 -1.350864
-7.1388434 -25.930697 -1.350864
-8.5843447 -25.930697 -1.350864
-10.029902 -25.930697 -1.350864
-11.475403 -25.930697 -1.350864
-12.920961 -25.930697 -1.350864
-14.366462 -25.930697 -1.350864
-15.812019 -25.930697 -1.350864
-17.257521 -25.930697 -1.350864
-18.703078 -25.930697 -1.350864
-20.148579 -25.930697 -1.350864
-21.594137 -25.930697 -1.350864
-23.039638 -25.930697 -1.350864
-24.485196 -25.930697 -1.350864
-25.930697 -25.930697 -1.350864
-27.376254 -25.930697 -1.350864
-28.827618 -25.930697 -1.350864
-1.350864 -27.376254 -1.350864
-2.8022553 -27.376254 -1.350864
-4.2477791 -27.376254 -1.350864
-5.6933084 -27.376254 -1.350864
-7.1388434 -27.376254 -1.350864
-8.5843447 -27.376254 -1.350864
-10.029902 -27.376254 -1.350864
-11.475403 -27.376254 -1.350864
-12.920961 -27.376254 -1.350864
-14.366462 -27.376254 -1.350864
-15.812019 -27.376254 -1.350864
-17.257521 -27.376254 -1.350864
-18.703078 -27.376254 -1.350864
-20.148579 -27.376254 -1.350864
-21.594137 -27.376254 -1.350864
-23.039638 -27.376254 -1.350864
-24.485196 -27.376254 -1.350864
-25.930697 -27.376254 -1.350864
-27.376254 -27.376254 -1.350864
-28.827618 -27.376254 -1.350864
-1.350864 -28.827618 -1.350864
-2.8022553 -28.827618 -1.350864
-4.2477791 -28.827618 -1.350864
-5.6933084 -28.827618 -1.350864
-7.1388434 -28.827618 -1.350864
-8.5843447 -28.827618 -1.350864
-10.029902 -28.827618 -1.350864
-11.475403 -28.827618 -1.350864
-12.920961 -28.827618 -1.350864
-14.366462 -28.827618 -1.350864
-15.812019 -28.827618 -1.350864
-17.257521 -28.827618 -1.350864
-18.703078 -28.827618 -1.350864
-20.148579 -28.827618 -1.350864
-21.594137 -28.827618 -1.350864
-23.039638 -28.827618 -1.350864
-24.485196 -28.827618 -1.350864
-25.930697 -28.827618 -1.350864
-27.376254 -28.827618 -1.350864
-28.827618 -28.827618 -1.350864
-1.350864 -1.350864 -2.8022553
-2.8022553 -1.350864 -2.8022553
-4.2477791 -1.350864 -2.8022553
-5.6933084 -1.350864 -2.8022553
-7.1388434 -1.350864 -2.8022553
-8.5843447 -1.350864 -2.8022553
-10.029902 -1.350864 -2.8022553
-11.475403 -1.350864 -2.8022553
-12.920961 -1.350864 -2.8022553
-14.366462 -1.350864 -2.8022553
-15.812019 -1.350864 -2.8022553
-17.257521 -1.350864 -2.8022553
-18.703078 -1.350864 -2.8022553
-20.148579 -1.350864 -2.8022553
-21.594137 -1.350864 -2.8022553
-23.039638 -1.350864 -2.8022553
-24.485196 -1.350864 -2.8022553
-25.930697 -1.350864 -2.8022553
-27.376254 -1.350864 -2.8022553
-28.827618 -1.350864 -2.8022553
-1.350864 -2.8022553 -2.8022553
-2.8022553 -2.8022553 -2.8022553
-4.2477791 -2.8022553 -2.8022553
-5.6933084 -2.8022553 -2.8022553
-7.1388434 -2.8022553 -2.8022553
-8.5843447 -2.8022553 -2.8022553
-10.029902 -2.8022553 -2.8022553
-11.475403 -2.8022553 -2.8022553
-12.920961 -2.8022553 -2.8022553
-14.366462 -2.8022553 -2.8022553
-15.812019 -2.8022553 -2.8022553
-17.257521 -2.8022553 -2.8022553
-18.703078 -2.8022553 -2.8022553
-20.148579 -2.8022553 -2.8022553
-21.594137 -2.8022553 -2.8022553
-23.039638 -2.8022553 -2.8022553