# vtk DataFile Version 4.0
hesp visualization file
ASCII
DATASET UNSTRUCTURED_GRID
POINTS 3000 double
0.1014709 0.1014709 0.1014709
2.2476444 0.1014709 0.1014709
4.3977613 0.1014709 0.1014709
6.5478865 0.1014709 0.1014709
8.69802 0.1014709 0.1014709
10.848103 0.1014709 0.1014709
12.99827 0.1014709 0.1014709
15.148354 0.1014709 0.1014709
17.298521 0.1014709 0.1014709
19.448604 0.1014709 0.1014709
21.598771 0.1014709 0.1014709
23.748855 0.1014709 0.1014709
25.899022 0.1014709 0.1014709
28.049105 0.1014709 0.1014709
30.199272 0.1014709 0.1014709
32.349355 0.1014709 0.1014709
34.499522 0.1014709 0.1014709
36.649606 0.1014709 0.1014709
38.799773 0.1014709 0.1014709
40.945904 0.1014709 0.1014709
0.1014709 2.2476444 0.1014709
2.2476444 2.2476444 0.1014709
4.3977613 2.2476444 0.1014709
6.5478865 2.2476444 0.1014709
8.69802 2.2476444 0.1014709
10.848103 2.2476444 0.1014709
12.99827 2.2476444 0.1014709
15.148354 2.2476444 0.1014709
17.298521 2.2476444 0.1014709
19.448604 2.2476444 0.1014709
21.598771 2.2476444 0.1014709
23.748855 2.2476444 0.1014709
25.899022 2.2476444 0.1014709
28.049105 2.2476444 0.1014709
30.199272 2.2476444 0.1014709
32.349355 2.2476444 0.1014709
34.499522 2.2476444 0.1014709
36.649606 2.2476444 0.1014709
38.799773 2.2476444 0.1014709
40.945904 2.2476444 0.1014709
0.1014709 4.3977613 0.1014709
2.2476444 4.3977613 0.1014709
4.3977613 4.3977613 0.1014709
6.5478865 4.3977613 0.1014709
8.69802 4.3977613 0.1014709
10.848103 4.3977613 0.1014709
12.99827 4.3977613 0.1014709
15.148354 4.3977613 0.1014709
17.298521 4.3977613 0.1014709
19.448604 4.3977613 0.1014709
21.598771 4.3977613 0.1014709
23.748855 4.3977613 0.1014709
25.899022 4.3977613 0.1014709
28.049105 4.3977613 0.1014709
30.199272 4.3977613 0.1014709
32.349355 4.3977613 0.1014709
34.499522 4.3977613 0.1014709
36.649606 4.3977613 0.1014709
38.799773 4.3977613 0.1014709
40.945904 4.3977613 0.1014709
0.1014709 6.5478865 0.1014709
2.2476444 6.5478865 0.1014709
4.3977613 6.5478865 0.1014709
6.5478865 6.5478865 0.1014709
8.69802 6.5478865 0.1014709
10.848103 6.5478865 0.1014709
12.99827 6.5478865 0.1014709
15.148354 6.5478865 0.1014709
17.298521 6.5478865 0.1014709
19.448604 6.5478865 0.1014709
21.598771 6.5478865 0.1014709
23.748855 6.5478865 0.1014709
25.899022 6.5478865 0.1014709
28.049105 6.5478865 0.1014709
30.199272 6.5478865 0.1014709
32.349355 6.5478865 0.1014709
34.499522 6.5478865 0.1014709
36.649606 6.5478865 0.1014709
38.799773 6.5478865 0.1014709
40.945904 6.5478865 0.1014709
0.1014709 8.69802 0.1014709
2.2476444 8.69802 0.1014709
4.3977613 8.69802 0.1014709
6.5478865 8.69802 0.1014709
8.69802 8.69802 0.1014709
10.848103 8.69802 0.1014709
12.99827 8.69802 0.1014709
15.148354 8.69802 0.1014709
17.298521 8.69802 0.1014709
19.448604 8.69802 0.1014709
21.598771 8.69802 0.1014709
23.748855 8.69802 0.1014709
25.899022 8.69802 0.1014709
28.049105 8.69802 0.1014709
30.199272 8.69802 0.1014709
32.349355 8.69802 0.1014709
34.499522 8.69802 0.1014709
36.649606 8.69802 0.1014709
38.799773 8.69802 0.1014709
40.945904 8.69802 0.1014709
0.1014709 10.848103 0.1014709
2.2476444 10.848103 0.1014709
4.3977613 10.848103 0.1014709
6.5478865 10.848103 0.1014709
8.69802 10.848103 0.1014709
10.848103 10.848103 0.1014709
12.99827 10.848103 0.1014709
15.148354 10.848103 0.1014709
17.298521 10.848103 0.1014709
19.448604 10.848103 0.1014709
21.598771 10.848103 0.1014709
23.748855 10.848103 0.1014709
25.899022 10.848103 0.1014709
28.049105 10.848103 0.1014709
30.199272 10.848103 0.1014709
32.349355 10.848103 0.1014709
34.499522 10.848103 0.1014709
36.649606 10.848103 0.1014709
38.799773 10.848103 0.1014709
40.945904 10.848103 0.1014709
0.1014709 12.99827 0.1014709
2.2476444 12.99827 0.1014709
4.3977613 12.99827 0.1014709
6.5478865 12.99827 0.1014709
8.69802 12.99827 0.1014709
10.848103 12.99827 0.1014709
12.99827 12.99827 0.1014709
15.148354 12.99827 0.1014709
17.298521 12.99827 0.1014709
19.448604 12.99827 0.1014709
21.598771 12.99827 0.1014709
23.748855 12.99827 0.1014709
25.899022 12.99827 0.1014709
28.049105 12.99827 0.1014709
30.199272 12.99827 0.1014709
32.349355 12.99827 0.1014709
34.499522 12.99827 0.1014709
36.649606 12.99827 0.1014709
38.799773 12.99827 0.1014709
40.945904 12.99827 0.1014709
0.1014709 15.148354 0.1014709
2.2476444 15.148354 0.1014709
4.3977613 15.148354 0.1014709
6.5478865 15.148354 0.1014709
8.69802 15.148354 0.1014709
10.848103 15.148354 0.1014709
12.99827 15.148354 0.1014709
15.148354 15.148354 0.1014709
17.298521 15.148354 0.1014709
19.448604 15.148354 0.1014709
21.598771 15.148354 0.1014709
23.748855 15.148354 0.1014709
25.899022 15.148354 0.1014709
28.049105 15.148354 0.1014709
30.199272 15.148354 0.1014709
32.349355 15.148354 0.1014709
34.499522 15.148354 0.1014709
36.649606 15.148354 0.1014709
38.799773 15.148354 0.1014709
40.945904 15.148354 0.1014709
0.1014709 17.298521 0.1014709
2.2476444 17.298521 0.1014709
4.3977613 17.298521 0.1014709
6.5478865 17.298521 0.1014709
8.69802 17.298521 0.1014709
10.848103 17.298521 0.1014709
12.99827 17.298521 0.1014709
15.148354 17.298521 0.1014709
17.298521 17.298521 0.1014709
19.448604 17.298521 0.1014709
21.598771 17.298521 0.1014709
23.748855 17.298521 0.1014709
25.899022 17.298521 0.1014709
28.049105 17.298521 0.1014709
30.199272 17.298521 0.1014709
32.349355 17.298521 0.1014709
34.499522 17.298521 0.1014709
36.649606 17.298521 0.1014709
38.799773 17.298521 0.1014709
40.945904 17.298521 0.1014709
0.1014709 19.448604 0.1014709
2.2476444 19.448604 0.1014709
4.3977613 19.448604 0.1014709
6.5478865 19.448604 0.1014709
8.69802 19.448604 0.1014709
10.848103 19.448604 0.1014709
12.99827 19.448604 0.1014709
15.148354 19.448604 0.1014709
17.298521 19.448604 0.1014709
19.448604 19.448604 0.1014709
21.598771 19.448604 0.1014709
23.748855 19.448604 0.1014709
25.899022 19.448604 0.1014709
28.049105 19.448604 0.1014709
30.199272 19.448604 0.1014709
32.349355 19.448604 0.1014709
34.499522 19.448604 0.1014709
36.649606 19.448604 0.1014709
38.799773 19.448604 0.1014709
40.945904 19.448604 0.1014709
0.1014709 21.598771 0.1014709
2.2476444 21.598771 0.1014709
4.3977613 21.598771 0.1014709
6.5478865 21.598771 0.1014709
8.69802 21.598771 0.1014709
10.848103 21.598771 0.1014709
12.99827 21.598771 0.1014709
15.148354 21.598771 0.1014709
17.298521 21.598771 0.1014709
19.448604 21.598771 0.1014709
21.598771 21.598771 0.1014709
23.748855 21.598771 0.1014709
25.899022 21.598771 0.1014709
28.049105 21.598771 0.1014709
30.199272 21.598771 0.1014709
32.349355 21.598771 0.1014709
34.499522 21.598771 0.1014709
36.649606 21.598771 0.1014709
38.799773 21.598771 0.1014709
40.945904 21.598771 0.1014709
0.1014709 23.748855 0.1014709
2.2476444 23.748855 0.1014709
4.3977613 23.748855 0.1014709
6.5478865 23.748855 0.1014709
8.69802 23.748855 0.1014709
10.848103 23.748855 0.1014709
12.99827 23.748855 0.1014709
15.148354 23.748855 0.1014709
17.298521 23.748855 0.1014709
19.448604 23.748855 0.1014709
21.598771 23.748855 0.1014709
23.748855 23.748855 0.1014709
25.899022 23.748855 0.1014709
28.049105 23.748855 0.1014709
30.199272 23.748855 0.1014709
32.349355 23.748855 0.1014709
34.499522 23.748855 0.1014709
36.649606 23.748855 0.1014709
38.799773 23.748855 0.1014709
40.945904 23.748855 0.1014709
0.1014709 25.899022 0.1014709
2.2476444 25.899022 0.1014709
4.3977613 25.899022 0.1014709
6.5478865 25.899022 0.1014709
8.69802 25.899022 0.1014709
10.848103 25.899022 0.1014709
12.99827 25.899022 0.1014709
15.148354 25.899022 0.1014709
17.298521 25.899022 0.1014709
19.448604 25.899022 0.1014709
21.598771 25.899022 0.1014709
23.748855 25.899022 0.1014709
25.899022 25.899022 0.1014709
28.049105 25.899022 0.1014709
30.199272 25.899022 0.1014709
32.349355 25.899022 0.1014709
34.499522 25.899022 0.1014709
36.649606 25.899022 0.1014709
38.799773 25.899022 0.1014709
40.945904 25.899022 0.1014709
0.1014709 28.049105 0.1014709
2.2476444 28.049105 0.1014709
4.3977613 28.049105 0.1014709
6.5478865 28.049105 0.1014709
8.69802 28.049105 0.1014709
10.848103 28.049105 0.1014709
12.99827 28.049105 0.1014709
15.148354 28.049105 0.1014709
17.298521 28.049105 0.1014709
19.448604 28.049105 0.1014709
21.598771 28.049105 0.1014709
23.748855 28.049105 0.1014709
25.899022 28.049105 0.1014709
28.049105 28.049105 0.1014709
30.199272 28.049105 0.1014709
32.349355 28.049105 0.1014709
34.499522 28.049105 0.1014709
36.649606 28.049105 0.1014709
38.799773 28.049105 0.1014709
40.945904 28.049105 0.1014709
0.1014709 30.199272 0.1014709
2.2476444 30.199272 0.1014709
4.3977613 30.199272 0.1014709
6.5478865 30.199272 0.1014709
8.69802 30.199272 0.1014709
10.848103 30.199272 0.1014709
12.99827 30.199272 0.1014709
15.148354 30.199272 0.1014709
17.298521 30.199272 0.1014709
19.448604 30.199272 0.1014709
21.598771 30.199272 0.1014709
23.748855 30.199272 0.1014709
25.899022 30.199272 0.1014709
28.049105 30.199272 0.1014709
30.199272 30.199272 0.1014709
32.349355 30.199272 0.1014709
34.499522 30.199272 0.1014709
36.649606 30.199272 0.1014709
38.799773 30.199272 0.1014709
40.945904 30.199272 0.1014709
0.1014709 32.349355 0.1014709
2.2476444 32.349355 0.1014709
4.3977613 32.349355 0.1014709
6.5478865 32.349355 0.1014709
8.69802 32.349355 0.1014709
10.848103 32.349355 0.1014709
12.99827 32.349355 0.1014709
15.148354 32.349355 0.1014709
17.298521 32.349355 0.1014709
19.448604 32.349355 0.1014709
21.598771 32.349355 0.1014709
23.748855 32.349355 0.1014709
25.899022 32.349355 0.1014709
28.049105 32.349355 0.1014709
30.199272 32.349355 0.1014709
32.349355 32.349355 0.1014709
34.499522 32.349355 0.1014709
36.649606 32.349355 0.1014709
38.799773 32.349355 0.1014709
40.945904 32.349355 0.1014709
0.1014709 34.499522 0.1014709
2.2476444 34.499522 0.1014709
4.3977613 34.499522 0.1014709
6.5478865 34.499522 0.1014709
8.69802 34.499522 0.1014709
10.848103 34.499522 0.1014709
12.99827 34.499522 0.1014709
15.148354 34.499522 0.1014709
17.298521 34.499522 0.1014709
19.448604 34.499522 0.1014709
21.598771 34.499522 0.1014709
23.748855 34.499522 0.1014709
25.899022 34.499522 0.1014709
[...]
POINT_DATA 3000
SCALARS m double
LOOKUP_TABLE default
1
1
1
1
1
1
1
1
1
1
1
1
1
1
1
1
1
1
1
1
1
1
1
1
1
1
1
1
1
1
1
1
1
1
1
1
1
1
1
1
1
1
1
1
1
1
1
1
1
1
1
1
1
1
1
1
1
1
1
1
1
1
1
1
1
1
1
1
1
1
1
1
1
1
1
1
1
1
1
1
1
1
1
1
1
1
1
1
1
1
1
1
1
1
1
1
1
1
1
1
1
1
1
1
1
1
1
1
1
1
1
1
1
1
1
1
1
1
1
1
1
1
1
1
1
1
1
1
1
1
1
1
1
1
1
1
1
1
1
1
1
1
1
1
1
1
1
1
1
1
1
1
1
1
1
1
1
1
1
1
1
1
1
1
1
1
1
1
1
1
1
1
1
1
1
1
1
1
1
1
1
1
1
1
1
1
1
1
1
1
1
1
1
1
1
1
1
1
1
1
1
1
1
1
1
1
1
1
1
1
1
1
1
1
1
1
1
1
1
1
1
1
1
1
1
1
1
1
1
1
1
1
1
1
1
1
1
1
1
1
1
1
1
1
1
1
1
1
1
1
1
1
1
1
1
1
1
1
1
1
1
1
1
1
1
1
1
1
1
1
1
1
1
1
1
1
1
1
1
1
1
1
1
1
1
1
1
1
1
1
1
1
1
1
1
1
1
1
1
1
1
1
1
1
1
1
1
1
1
1
1
1
1
1
1
1
1
1
1
1
1
1
1
1
1
1
1
1
1
1
1
1
1
1
1
1
1
1
1
1
1
1
1
1
1
1
1
1
1
1
1
1
1
1
1
1
1
1
1
1
1
1
1
1
1
1
1
1
1
1
1
1
1
1
1
1
1
1
1
1
1
1
1
1
1
1
1
1
1
1
1
1
1
1
1
1
1
1
1
1
1
1
1
1
1
1
1
1
1
1
1
1
1
1
1
1
1
1
1
1
1
1
1
1
1
1
1
1
1
1
1
1
1
1
1
1
1
1
1
1
1
1
1
1
1
1
1
1
1
1
1
1
1
1
1
1
1
1
1
1
1
1
1
1
1
1
1
1
1
1
1
1
1
1
1
1
1
1
1
1
1
1
1
1
1
1
1
1
1
1
1
1
1
1
1
1
1
1
1
1
1
1
1
1
1
1
1
1
1
1
1
1
1
1
1
1
1
1
1
1
1
1
1
1
1
1
1
1
1
1
1
1
1
1
1
1
1
1
1
1
1
1
1
1
1
1
1
1
1
1
1
1
1
1
1
1
1
1
1
1
1
1
1
1
1
1
1
1
1
1
1
1
1
1
1
1
1
1
1
1
1
1
1
1
1
1
1
1
1
1
1
1
1
1
1
1
1
1
1
1
1
1
1
1
1
1
1
1
1
1
1
1
1
1
1
1
1
1
1
1
1
1
1
1
1
1
1
1
1
1
1
1
1
1
1
1
1
1
1
1
1
1
1
1
1
1
1
1
1
1
1
1
1
1
1
1
1
1
1
1
1
1
1
1
1
1
1
1
1
1
1
1
1
1
1
1
1
1
1
1
1
1
1
1
1
1
1
1
1
1
1
1
1
1
1
1
1
1
1
1
1
1
1
1
1
1
1
1
1
1
1
1
1
1
1
1
1
1
1
1
1
1
1
1
1
1
1
1
1
1
1
1
1
1
1
1
1
1
1
1
1
1
1
1
1
1
1
1
1
1
1
1
1
1
1
1
1
1
1
1
1
1
1
1
1
1
1
1
1
1
1
1
1
1
1
1
1
1
1
1
1
1
1
1
1
1
1
1
1
1
1
1
1
1
1
1
1
1
1
1
1
1
1
1
1
1
1
1
1
1
1
1
1
1
1
1
1
1
1
1
1
1
1
1
1
1
1
1
1
1
1
1
1
1
1
1
1
1
1
1
1
1
1
1
1
1
1
1
1
1
1
1
1
1
1
1
1
1
1
1
1
1
1
1
1
1
1
1
1
1
1
1
1
1
1
1
1
1
1
1
1
1
1
1
1
1
1
1
1
1
1
1
1
1
1
1
1
1
1
1
1
1
1
1
1
1
1
1
1
1
1
1
1
1
1
1
1
1
1
1
1
1
1
1
1
1
1
1
1
1
1
1
1
1
1
1
1
1
1
1
1
1
1
1
1
1
1
1
1
1
1
1
1
1
1
1
1
1
1
1
1
1
1
1
1
1
1
1
1
1
1
1
1
1
1
1
1
1
1
1
1
1
1
1
1
1
1
1
1
1
1
1
1
1
1
1
1
1
1
1
1
1
1
1
1
1
1
1
1
1
1
1
1
1
1
1
1
1
1
1
1
1
1
1
1
1
1
1
1
1
1
1
1
1
1
1
1
1
1
1
1
1
1
1
1
1
1
1
1
1
1
1
1
1
1
1
1
1
1
1
1
1
1
1
1
1
1
1
1
1
1
1
1
1
1
1
1
1
1
1
1
1
1
1
1
1
1
1
1
1
1
1
1
1
1
1
1
1
1
1
1
1
1
1
1
1
1
1
1
1
1
1
1
1
1
1
1
1
1
1
1
1
1
1
1
1
1
1
1
1
1
1
1
1
1
1
1
1
1
1
1
1
1
1
1
1
1
1
1
1
1
1
1
1
1
1
1
1
1
1
1
1
1
1
1
1
1
1
1
1
1
1
1
1
1
1
1
1
1
1
1
1
1
1
1
1
1
1
1
1
1
1
1
1
1
1
1
1
1
1
1
1
1
1
1
1
1
1
1
1
1
1
1
1
1
1
1
1
1
1
1
1
1
1
1
1
1
1
1
1
1
1
1
1
1
1
1
1
1
1
1
1
1
1
1
1
1
1
1
1
1
1
1
1
1
1
1
1
1
1
1
1
1
1
1
1
1
1
1
1
1
1
1
1
1
1
1
1
1
1
1
1
1
1
1
1
1
1
1
1
1
1
1
1
1
1
1
1
1
1
1
1
1
1
1
1
1
1
1
1
1
1
1
1
1
1
1
1
1
1
1
1
1
1
1
1
1
1
1
1
1
1
1
1
1
1
1
1
1
1
1
1
1
1
1
1
1
1
1
1
1
1
1
1
1
1
1
1
1
1
1
1
1
1
1
1
1
1
1
1
1
1
1
1
1
1
1
1
1
1
1
1
1
1
1
1
1
1
1
1
1
1
1
1
1
1
1
1
1
1
1
1
1
1
1
1
1
1
1
1
1
1
1
1
1
1
1
1
1
1
1
1
1
1
1
1
1
1
1
1
1
1
1
1
1
1
1
1
1
1
1
1
1
1
1
1
1
1
1
1
1
1
1
1
1
1
1
1
1
1
1
1
1
1
1
1
1
1
1
1
1
1
1
1
1
1
1
1
1
1
1
1
1
1
1
1
1
1
1
1
1
1
1
1
1
1
1
1
1
1
1
1
1
1
1
1
1
1
1
1
1
1
1
1
1
1
1
1
1
1
1
1
1
1
1
1
1
1
1
1
1
1
1
1
1
1
1
1
1
1
1
1
1
1
1
1
1
1
1
1
1
1
1
1
1
1
1
1
1
1
1
1
1
1
1
1
1
1
1
1
1
1
1
1
1
1
1
1
1
1
1
1
1
1
1
1
1
1
1
1
1
1
1
1
1
1
1
1
1
1
1
1
1
1
1
1
1
1
1
1
1
1
1
1
1
1
1
1
1
1
1
1
1
1
1
1
1
1
1
1
1
1
1
1
1
1
1
1
1
1
1
1
1
1
1
1
1
1
1
1
1
1
1
1
1
1
1
1
1
1
1
1
1
1
1
1
1
1
1
1
1
1
1
1
1
1
1
1
1
1
1
1
1
1
1
1
1
1
1
1
1
1
1
1
1
1
1
1
1
1
1
1
1
1
1
1
1
1
1
1
1
1
1
1
1
1
1
1
1
1
1
1
1
1
1
1
1
1
1
1
1
1
1
1
1
1
1
1
1
1
1
1
1
1
1
1
1
1
1
1
1
1
1
1
1
1
1
1
1
1
1
1
1
1
1
1
1
1
1
1
1
1
1
1
1
1
1
1
1
1
1
1
1
1
1
1
1
1
1
1
1
1
1
1
1
1
1
1
1
1
1
1
1
1
1
1
1
1
1
1
1
1
1
1
1
1
1
1
1
1
1
1
1
1
1
1
1
1
1
1
1
1
1
1
1
1
1
1
1
1
1
1
1
1
1
1
1
1
1
1
1
1
1
1
1
1
1
1
1
1
1
1
1
1
1
1
1
1
1
1
1
1
1
1
1
1
1
1
1
1
1
1
1
1
1
1
1
1
1
1
1
1
1
1
1
1
1
1
1
1
1
1
1
1
1
1
1
1
1
1
1
1
1
1
1
1
1
1
1
1
1
1
1
1
1
1
1
1
1
1
1
1
1
1
1
1
1
1
1
1
1
1
1
1
1
1
1
1
1
1
1
1
1
1
1
1
1
1
1
1
1
1
1
1
1
1
1
1
1
1
1
1
1
1
1
1
1
1
1
1
1
1
1
1
1
1
1
1
1
1
1
1
1
1
1
1
1
1
1
1
1
1
1
1
1
1
1
1
1
1
1
1
1
1
1
1
1
1
1
1
1
1
1
1
1
1
1
1
1
1
1
1
1
1
1
1
1
1
1
1
1
1
1
1
1
1
1
1
1
1
1
1
1
1
1
1
1
1
1
1
1
1
1
1
1
1
1
1
1
1
1
1
1
1
1
1
1
1
1
1
1
1
1
1
1
1
1
1
1
1
1
1
1
1
1
1
1
1
1
1
1
1
1
1
1
1
1
1
1
1
1
1
1
1
1
1
1
1
1
1
1
1
1
1
1
1
1
1
1
1
1
1
1
1
1
1
1
1
1
1
1
1
1
1
1
1
1
1
1
1
1
1
1
1
1
1
1
1
1
1
1
1
1
1
1
1
1
1
1
1
1
1
1
1
1
1
1
1
1
1
1
1
1
1
1
1
1
1
1
1
1
1
1
1
1
1
1
1
1
1
1
1
1
1
1
1
1
1
1
1
1
1
1
1
1
1
1
1
1
1
1
1
1
1
1
1
1
1
1
1
1
1
1
1
1
1
1
1
1
1
1
1
1
1
1
1
1
1
1
1
1
1
1
1
1
1
1
1
1
1
1
1
1
1
1
1
1
1
1
1
1
1
1
1
1
1
1
1
1
1
1
1
1
1
1
1
1
1
1
1
1
1
1
1
1
1
1
1
1
1
1
1
1
1
1
1
1
1
1
1
1
1
1
1
1
1
1
1
1
1
1
1
1
1
1
1
1
1
1
1
1
1
1
1
1
1
1
1
1
1
1
1
1
1
1
1
1
1
1
1
1
1
1
1
1
1
1
1
1
1
1
1
1
1
1
1
1
1
1
1
1
1
1
1
1
1
1
1
1
1
1
1
1
1
1
1
1
1
1
1
1
1
1
1
1
1
1
1
1
1
1
1
1
1
1
1
1
1
1
1
1
1
1
1
1
1
1
1
1
1
1
1
1
1
1
1
1
1
1
1
1
1
1
1
1
1
1
1
1
1
1
1
1
1
1
1
1
1
1
1
1
1
1
1
1
1
1
1
1
1
1
1
1
1
1
1
1
1
1
1
1
1
1
1
1
1
1
1
1
1
1
1
1
1
1
1
1
1
1
1
1
1
1
1
1
1
1
1
1
1
1
1
1
1
1
1
1
1
1
1
1
1
1
1
1
1
1
1
1
1
1
1
1
1
1
1
1
1
1
1
1
1
1
1
1
1
1
1
1
1
1
1
1
1
1
1
1
1
1
1
1
1
1
1
1
1
1
1
1
1
1
1
1
1
1
1
1
1
1
1
1
1
1
1
1
1
1
1
1
1
1
1
1
1
1
1
1
1
1
1
1
1
1
1
1
1
1
1
1
1
1
1
1
1
1
1
1
1
1
1
1
1
1
1
1
1
1
1
1
1
1
1
1
1
1
1
1
1
1
1
1
1
1
1
1
1
1
1
1
1
1
1
1
1
1
1
1
1
1
1
1
1
1
1
1
1
1
1
1
1
1
1
1
1
1
1
1
1
1
1
1
1
1
1
1
1
1
1
1
1
1
1
1
1
1
1
1
1
1
1
1
1
1
1
1
1
1
1
1
1
1
1
1
1
1
1
1
1
1
1
1
1
1
1
1
1
1
1
1
1
1
1
1
1
1
1
1
1
1
1
1
1
1
1
1
1
1
1
1
1
1
1
1
1
1
1
1
1
1
1
1
1
1
1
1
1
1
1
1
1
1
1
1
1
1
1
1
1
1
1
1
1
1
1
1
1
1
1
1
1
1
1
1
1
1
1
1
1
1
1
1
1
1
1
1
1
1
1
1
1
1
1
1
1
1
1
1
1
1
1
1
1
1
1
1
1
1
1
1
1
1
1
1
1
1
1
1
1
1
1
1
1
1
1
1
1
1
1
1
1
1
1
1
1
1
1
1
1
1
1
1
1
1
1
1
1
1
1
1
1
1
1
1
1
1
1
1
1
1
1
1
1
1
1
1
1
1
1
1
1
1
1
1
1
1
1
1
1
1
1
1
1
1
1
1
1
1
1
1
1
1
1
1
1
1
1
1
1
1
1
1
1
1
1
1
1
1
1
1
1
1
1
1
1
1
1
1
1
1
1
1
1
1
1
1
1
1
1
1
1
1
1
1
1
1
1
1
1
1
1
1
1
1
1
1
1
1
1
1
1
1
1
1
1
1
1
1
1
1
1
1
1
1
1
1
1
1
1
1
1
1
1
1
1
1
1
1
1
1
1
1
1
1
1
1
1
1
1
1
1
VECTORS v double
-1.3307111 -1.3307111 -1.3307111
-2.7607128 -1.3307111 -1.3307111
-4.1848071 -1.3307111 -1.3307111
-5.608907 -1.3307111 -1.3307111
-7.0330123 -1.3307111 -1.3307111
-8.4570845 -1.3307111 -1.3307111
-9.881212 -1.3307111 -1.3307111
-11.305284 -1.3307111 -1.3307111
-12.729412 -1.3307111 -1.3307111
-14.153484 -1.3307111 -1.3307111
-15.577611 -1.3307111 -1.3307111
-17.001684 -1.3307111 -1.3307111
-18.425811 -1.3307111 -1.3307111
-19.849883 -1.3307111 -1.3307111
-21.274011 -1.3307111 -1.3307111
-22.698083 -1.3307111 -1.3307111
-24.12221 -1.3307111 -1.3307111
-25.546283 -1.3307111 -1.3307111
-26.97041 -1.3307111 -1.3307111
-28.400384 -1.3307111 -1.3307111
-1.3307111 -2.7607128 -1.3307111
-2.7607128 -2.7607128 -1.3307111
-4.1848071 -2.7607128 -1.3307111
-5.608907 -2.7607128 -1.3307111
-7.0330123 -2.7607128 -1.3307111
-8.4570845 -2.7607128 -1.3307111
-9.881212 -2.7607128 -1.3307111
-11.305284 -2.7607128 -1.3307111
-12.729412 -2.7607128 -1.3307111
-14.153484 -2.7607128 -1.3307111
-15.577611 -2.7607128 -1.3307111
-17.001684 -2.7607128 -1.3307111
-18.425811 -2.7607128 -1.3307111
-19.849883 -2.7607128 -1.3307111
-21.274011 -2.7607128 -1.3307111
-22.698083 -2.7607128 -1.3307111
-24.12221 -2.7607128 -1.3307111
-25.546283 -2.7607128 -1.3307111
-26.97041 -2.7607128 -1.3307111
-28.400384 -2.7607128 -1.3307111
-1.3307111 -4.1848071 -1.3307111
-2.7607128 -4.1848071 -1.3307111
-4.1848071 -4.1848071 -1.3307111
-5.608907 -4.1848071 -1.3307111
-7.0330123 -4.1848071 -1.3307111
-8.4570845 -4.1848071 -1.3307111
-9.881212 -4.1848071 -1.3307111
-11.305284 -4.1848071 -1.3307111
-12.729412 -4.1848071 -1.3307111
-14.153484 -4.1848071 -1.3307111
-15.577611 -4.1848071 -1.3307111
-17.001684 -4.1848071 -1.3307111
-18.425811 -4.1848071 -1.3307111
-19.849883 -4.1848071 -1.3307111
-21.274011 -4.1848071 -1.3307111
-22.698083 -4.1848071 -1.3307111
-24.12221 -4.1848071 -1.3307111
-25.546283 -4.1848071 -1.3307111
-26.97041 -4.1848071 -1.3307111
-28.400384 -4.1848071 -1.3307111
-1.3307111 -5.608907 -1.3307111
-2.7607128 -5.608907 -1.3307111
-4.1848071 -5.608907 -1.3307111
-5.608907 -5.608907 -1.3307111
-7.0330123 -5.608907 -1.3307111
-8.4570845 -5.608907 -1.3307111
-9.881212 -5.608907 -1.3307111
-11.305284 -5.608907 -1.3307111
-12.729412 -5.608907 -1.3307111
-14.153484 -5.608907 -1.3307111
-15.577611 -5.608907 -1.3307111
-17.001684 -5.608907 -1.3307111
-18.425811 -5.608907 -1.3307111
-19.849883 -5.608907 -1.3307111
-21.274011 -5.608907 -1.3307111
-22.698083 -5.608907 -1.3307111
-24.12221 -5.608907 -1.3307111
-25.546283 -5.608907 -1.3307111
-26.97041 -5.608907 -1.3307111
-28.400384 -5.608907 -1.3307111
-1.3307111 -7.0330123 -1.3307111
-2.7607128 -7.0330123 -1.3307111
-4.1848071 -7.0330123 -1.3307111
-5.608907 -7.0330123 -1.3307111
-7.0330123 -7.0330123 -1.3307111
-8.4570845 -7.0330123 -1.3307111
-9.881212 -7.0330123 -1.3307111
-11.305284 -7.0330123 -1.3307111
-12.729412 -7.0330123 -1.3307111
-14.153484 -7.0330123 -1.3307111
-15.577611 -7.0330123 -1.3307111
-17.001684 -7.0330123 -1.3307111
-18.425811 -7.0330123 -1.3307111
-19.849883 -7.0330123 -1.3307111
-21.274011 -7.0330123 -1.3307111
-22.698083 -7.0330123 -1.3307111
-24.12221 -7.0330123 -1.3307111
-25.546283 -7.0330123 -1.3307111
-26.97041 -7.0330123 -1.3307111
-28.400384 -7.0330123 -1.3307111
-1.3307111 -8.4570845 -1.3307111
-2.7607128 -8.4570845 -1.3307111
-4.1848071 -8.4570845 -1.3307111
-5.608907 -8.4570845 -1.3307111
-7.0330123 -8.4570845 -1.3307111
-8.4570845 -8.4570845 -1.3307111
-9.881212 -8.4570845 -1.3307111
-11.305284 -8.4570845 -1.3307111
-12.729412 -8.4570845 -1.3307111
-14.153484 -8.4570845 -1.3307111
-15.577611 -8.4570845 -1.3307111
-17.001684 -8.4570845 -1.3307111
-18.425811 -8.4570845 -1.3307111
-19.849883 -8.4570845 -1.3307111
-21.274011 -8.4570845 -1.3307111
-22.698083 -8.4570845 -1.3307111
-24.12221 -8.4570845 -1.3307111
-25.546283 -8.4570845 -1.3307111
-26.97041 -8.4570845 -1.3307111
-28.400384 -8.4570845 -1.3307111
-1.3307111 -9.881212 -1.3307111
-2.7607128 -9.881212 -1.3307111
-4.1848071 -9.881212 -1.3307111
-5.608907 -9.881212 -1.3307111
-7.0330123 -9.881212 -1.3307111
-8.4570845 -9.881212 -1.3307111
-9.881212 -9.881212 -1.3307111
-11.305284 -9.881212 -1.3307111
-12.729412 -9.881212 -1.3307111
-14.153484 -9.881212 -1.3307111
-15.577611 -9.881212 -1.3307111
-17.001684 -9.881212 -1.3307111
-18.425811 -9.881212 -1.3307111
-19.849883 -9.881212 -1.3307111
-21.274011 -9.881212 -1.3307111
-22.698083 -9.881212 -1.3307111
-24.12221 -9.881212 -1.3307111
-25.546283 -9.881212 -1.3307111
-26.97041 -9.881212 -1.3307111
-28.400384 -9.881212 -1.3307111
-1.3307111 -11.305284 -1.3307111
-2.7607128 -11.305284 -1.3307111
-4.1848071 -11.305284 -1.3307111
-5.608907 -11.305284 -1.3307111
-7.0330123 -11.305284 -1.3307111
-8.4570845 -11.305284 -1.3307111
-9.881212 -11.305284 -1.3307111
-11.305284 -11.305284 -1.3307111
-12.729412 -11.305284 -1.3307111
-14.153484 -11.305284 -1.3307111
-15.577611 -11.305284 -1.3307111
-17.001684 -11.305284 -1.3307111
-18.425811 -11.305284 -1.3307111
-19.849883 -11.305284 -1.3307111
-21.274011 -11.305284 -1.3307111
-22.698083 -11.305284 -1.3307111
-24.12221 -11.305284 -1.3307111
-25.546283 -11.305284 -1.3307111
-26.97041 -11.305284 -1.3307111
-28.400384 -11.305284 -1.3307111
-1.3307111 -12.729412 -1.3307111
-2.7607128 -12.729412 -1.3307111
-4.1848071 -12.729412 -1.3307111
-5.608907 -12.729412 -1.3307111
-7.0330123 -12.729412 -1.3307111
-8.4570845 -12.729412 -1.3307111
-9.881212 -12.729412 -1.3307111
-11.305284 -12.729412 -1.3307111
-12.729412 -12.729412 -1.3307111
-14.153484 -12.729412 -1.3307111
-15.577611 -12.729412 -1.3307111
-17.001684 -12.729412 -1.3307111
-18.425811 -12.729412 -1.3307111
-19.849883 -12.729412 -1.3307111
-21.274011 -12.729412 -1.3307111
-22.698083 -12.729412 -1.3307111
-24.12221 -12.729412 -1.3307111
-25.546283 -12.729412 -1.3307111
-26.97041 -12.729412 -1.3307111
-28.400384 -12.729412 -1.3307111
-1.3307111 -14.153484 -1.3307111
-2.7607128 -14.153484 -1.3307111
-4.1848071 -14.153484 -1.3307111
-5.608907 -14.153484 -1.3307111
-7.0330123 -14.153484 -1.3307111
-8.4570845 -14.153484 -1.3307111
-9.881212 -14.153484 -1.3307111
-11.305284 -14.153484 -1.3307111
-12.729412 -14.153484 -1.3307111
-14.153484 -14.153484 -1.3307111
-15.577611 -14.153484 -1.3307111
-17.001684 -14.153484 -1.3307111
-18.425811 -14.153484 -1.3307111
-19.849883 -14.153484 -1.3307111
-21.274011 -14.153484 -1.3307111
-22.698083 -14.153484 -1.3307111
-24.12221 -14.153484 -1.3307111
-25.546283 -14.153484 -1.3307111
-26.97041 -14.153484 -1.3307111
-28.400384 -14.153484 -1.3307111
-1.3307111 -15.577611 -1.3307111
-2.7607128 -15.577611 -1.3307111
-4.1848071 -15.577611 -1.3307111
-5.608907 -15.577611 -1.3307111
-7.0330123 -15.577611 -1.3307111
-8.4570845 -15.577611 -1.3307111
-9.881212 -15.577611 -1.3307111
-11.305284 -15.577611 -1.3307111
-12.729412 -15.577611 -1.3307111
-14.153484 -15.577611 -1.3307111
-15.577611 -15.577611 -1.3307111
-17.001684 -15.577611 -1.3307111
-18.425811 -15.577611 -1.3307111
-19.849883 -15.577611 -1.3307111
-21.274011 -15.577611 -1.3307111
-22.698083 -15.577611 -1.3307111
-24.12221 -15.577611 -1.3307111
-25.546283 -15.577611 -1.3307111
-26.97041 -15.577611 -1.3307111
-28.400384 -15.577611 -1.3307111
-1.3307111 -17.001684 -1.3307111
-2.7607128 -17.001684 -1.3307111
-4.1848071 -17.001684 -1.3307111
-5.608907 -17.001684 -1.3307111
-7.0330123 -17.001684 -1.3307111
-8.4570845 -17.001684 -1.3307111
-9.881212 -17.001684 -1.3307111
-11.305284 -17.001684 -1.3307111
-12.729412 -17.001684 -1.3307111
-14.153484 -17.001684 -1.3307111
-15.577611 -17.001684 -1.3307111
-17.001684 -17.001684 -1.3307111
-18.425811 -17.001684 -1.3307111
-19.849883 -17.001684 -1.3307111
-21.274011 -17.001684 -1.3307111
-22.698083 -17.001684 -1.3307111
-24.12221 -17.001684 -1.3307111
-25.546283 -17.001684 -1.3307111
-26.97041 -17.001684 -1.3307111
-28.400384 -17.001684 -1.3307111
-1.3307111 -18.425811 -1.3307111
-2.7607128 -18.425811 -1.3307111
-4.1848071 -18.425811 -1.3307111
-5.608907 -18.425811 -1.3307111
-7.0330123 -18.425811 -1.3307111
-8.4570845 -18.425811 -1.3307111
-9.881212 -18.425811 -1.3307111
-11.305284 -18.425811 -1.3307111
-12.729412 -18.425811 -1.3307111
-14.153484 -18.425811 -1.3307111
-15.577611 -18.425811 -1.3307111
-17.001684 -18.425811 -1.3307111
-18.425811 -18.425811 -1.3307111
-19.849883 -18.425811 -1.3307111
-21.274011 -18.425811 -1.3307111
-22.698083 -18.425811 -1.3307111
-24.12221 -18.425811 -1.3307111
-25.546283 -18.425811 -1.3307111
-26.97041 -18.425811 -1.3307111
-28.400384 -18.425811 -1.3307111
-1.3307111 -19.849883 -1.3307111
-2.7607128 -19.849883 -1.3307111
-4.1848071 -19.849883 -1.3307111
-5.608907 -19.849883 -1.3307111
-7.0330123 -19.849883 -1.3307111
-8.4570845 -19.849883 -1.3307111
-9.881212 -19.849883 -1.3307111
-11.305284 -19.849883 -1.3307111
-12.729412 -19.849883 -1.3307111
-14.153484 -19.849883 -1.3307111
-15.577611 -19.849883 -1.3307111
-17.001684 -19.849883 -1.3307111
-18.425811 -19.849883 -1.3307111
-19.849883 -19.849883 -1.3307111
-21.274011 -19.849883 -1.3307111
-22.698083 -19.849883 -1.3307111
-24.12221 -19.849883 -1.3307111
-25.546283 -19.849883 -1.3307111
-26.97041 -19.849883 -1.3307111
-28.400384 -19.849883 -1.3307111
-1.3307111 -21.274011 -1.3307111
-2.7607128 -21.274011 -1.3307111
-4.1848071 -21.274011 -1.3307111
-5.608907 -21.274011 -1.3307111
-7.0330123 -21.274011 -1.3307111
-8.4570845 -21.274011 -1.3307111
-9.881212 -21.274011 -1.3307111
-11.305284 -21.274011 -1.3307111
-12.729412 -21.274011 -1.3307111
-14.153484 -21.274011 -1.3307111
-15.577611 -21.274011 -1.3307111
-17.001684 -21.274011 -1.3307111
-18.425811 -21.274011 -1.3307111
-19.849883 -21.274011 -1.3307111
-21.274011 -21.274011 -1.3307111
-22.698083 -21.274011 -1.3307111
-24.12221 -21.274011 -1.3307111
-25.546283 -21.274011 -1.3307111
-26.97041 -21.274011 -1.3307111
-28.400384 -21.274011 -1.3307111
-1.3307111 -22.698083 -1.3307111
-2.7607128 -22.698083 -1.3307111
-4.1848071 -22.698083 -1.3307111
-5.608907 -22.698083 -1.3307111
-7.0330123 -22.698083 -1.3307111
-8.4570845 -22.698083 -1.3307111
-9.881212 -22.698083 -1.3307111
-11.305284 -22.698083 -1.3307111
-12.729412 -22.698083 -1.3307111
-14.153484 -22.698083 -1.3307111
-15.577611 -22.698083 -1.3307111
-17.001684 -22.698083 -1.3307111
-18.425811 -22.698083 -1.3307111
-19.849883 -22.698083 -1.3307111
-21.274011 -22.698083 -1.3307111
-22.698083 -22.698083 -1.3307111
-24.12221 -22.698083 -1.3307111
-25.546283 -22.698083 -1.3307111
-26.97041 -22.698083 -1.3307111
-28.400384 -22.698083 -1.3307111
-1.3307111 -24.12221 -1.3307111
-2.7607128 -24.12221 -1.3307111
-4.1848071 -24.12221 -1.3307111
-5.608907 -24.12221 -1.3307111
-7.0330123 -24.12221 -1.3307111
-8.4570845 -24.12221 -1.3307111
-9.881212 -24.12221 -1.3307111
-11.305284 -24.12221 -1.3307111
-12.729412 -24.12221 -1.3307111
-14.153484 -24.12221 -1.3307111
-15.577611 -24.12221 -1.3307111
-17.001684 -24.12221 -1.3307111
-18.425811 -24.12221 -1.3307111
-19.849883 -24.12221 -1.3307111
-21.274011 -24.12221 -1.3307111
-22.698083 -24.12221 -1.3307111
-24.12221 -24.12221 -1.3307111
-25.546283 -24.12221 -1.3307111
-26.97041 -24.12221 -1.3307111
-28.400384 -24.12221 -1.3307111
-1.3307111 -25.546283 -1.3307111
-2.7607128 -25.546283 -1.3307111
-4.1848071 -25.546283 -1.3307111
-5.608907 -25.546283 -1.3307111
-7.0330123 -25.546283 -1.3307111
-8.4570845 -25.546283 -1.3307111
-9.881212 -25.546283 -1.3307111
-11.305284 -25.546283 -1.3307111
-12.729412 -25.546283 -1.3307111
-14.153484 -25.546283 -1.3307111
-15.577611 -25.546283 -1.3307111
-17.001684 -25.546283 -1.3307111
-18.425811 -25.546283 -1.3307111
-19.849883 -25.546283 -1.3307111
-21.274011 -25.546283 -1.3307111
-22.698083 -25.546283 -1.3307111
-24.12221 -25.546283 -1.3307111
-25.546283 -25.546283 -1.3307111
-26.97041 -25.546283 -1.3307111
-28.400384 -25.546283 -1.3307111
-1.3307111 -26.97041 -1.3307111
-2.7607128 -26.97041 -1.3307111
-4.1848071 -26.97041 -1.3307111
-5.608907 -26.97041 -1.3307111
-7.0330123 -26.97041 -1.3307111
-8.4570845 -26.97041 -1.3307111
-9.881212 -26.97041 -1.3307111
-11.305284 -26.97041 -1.3307111
-12.729412 -26.97041 -1.3307111
-14.153484 -26.97041 -1.3307111
-15.577611 -26.97041 -1.3307111
-17.001684 -26.97041 -1.3307111
-18.425811 -26.97041 -1.3307111
-19.849883 -26.97041 -1.3307111
-21.274011 -26.97041 -1.3307111
-22.698083 -26.97041 -1.3307111
-24.12221 -26.97041 -1.3307111
-25.546283 -26.97041 -1.3307111
-26.97041 -26.97041 -1.3307111
-28.400384 -26.97041 -1.3307111
-1.3307111 -28.400384 -1.3307111
-2.7607128 -28.400384 -1.3307111
-4.1848071 -28.400384 -1.3307111
-5.608907 -28.400384 -1.3307111
-7.0330123 -28.400384 -1.3307111
-8.4570845 -28.400384 -1.3307111
-9.881212 -28.400384 -1.3307111
-11.305284 -28.400384 -1.3307111
-12.729412 -28.400384 -1.3307111
-14.153484 -28.400384 -1.3307111
-15.577611 -28.400384 -1.3307111
-17.001684 -28.400384 -1.3307111
-18.425811 -28.400384 -1.3307111
-19.849883 -28.400384 -1.3307111
-21.274011 -28.400384 -1.3307111
-22.698083 -28.400384 -1.3307111
-24.12221 -28.400384 -1.3307111
-25.546283 -28.400384 -1.3307111
-26.97041 -28.400384 -1.3307111
-28.400384 -28.400384 -1.3307111
-1.3307111 -1.3307111 -2.7607128
-2.7607128 -1.3307111 -2.7607128
-4.1848071 -1.3307111 -2.7607128
-5.608907 -1.3307111 -2.7607128
-7.0330123 -1.3307111 -2.7607128
-8.4570845 -1.3307111 -2.7607128
-9.881212 -1.3307111 -2.7607128
-11.305284 -1.3307111 -2.7607128
-12.729412 -1.3307111 -2.7607128
-14.153484 -1.3307111 -2.7607128
-15.577611 -1.3307111 -2.7607128
-17.001684 -1.3307111 -2.7607128
-18.425811 -1.3307111 -2.7607128
-19.849883 -1.3307111 -2.7607128
-21.274011 -1.3307111 -2.7607128
-22.698083 -1.3307111 -2.7607128
-24.12221 -1.3307111 -2.7607128
-25.546283 -1.3307111 -2.7607128
-26.97041 -1.3307111 -2.7607128
-28.400384 -1.3307111 -2.7607128
-1.3307111 -2.7607128 -2.7607128
-2.7607128 -2.7607128 -2.7607128
-4.1848071 -2.7607128 -2.7607128
-5.608907 -2.7607128 -2.7607128
-7.0330123 -2.7607128 -2.7607128
-8.4570845 -2.7607128 -2.7607128
-9.881212 -2.7607128 -2.7607128