# vtk DataFile Version 4.0
hesp visualization file
ASCII
DATASET UNSTRUCTURED_GRID
POINTS 3000 double
0.06064505 0.06064505 0.06064505
2.1629585 0.06064505 0.06064505
4.2693908 0.06064505 0.06064505
6.3758312 0.06064505 0.06064505
8.4822797 0.06064505 0.06064505
10.588679 0.06064505 0.06064505
12.695161 0.06064505 0.06064505
14.80156 0.06064505 0.06064505
16.908041 0.06064505 0.06064505
19.014441 0.06064505 0.06064505
21.120922 0.06064505 0.06064505
23.227322 0.06064505 0.06064505
25.333803 0.06064505 0.06064505
27.440202 0.06064505 0.06064505
29.546684 0.06064505 0.06064505
31.653083 0.06064505 0.06064505
33.759565 0.06064505 0.06064505
35.865964 0.06064505 0.06064505
37.972445 0.06064505 0.06064505
40.074718 0.06064505 0.06064505
0.06064505 2.1629585 0.06064505
2.1629585 2.1629585 0.06064505
4.2693908 2.1629585 0.06064505
6.3758312 2.1629585 0.06064505
8.4822797 2.1629585 0.06064505
10.588679 2.1629585 0.06064505
12.695161 2.1629585 0.06064505
14.80156 2.1629585 0.06064505
16.908041 2.1629585 0.06064505
19.014441 2.1629585 0.06064505
21.120922 2.1629585 0.06064505
23.227322 2.1629585 0.06064505
25.333803 2.1629585 0.06064505
27.440202 2.1629585 0.06064505
29.546684 2.1629585 0.06064505
31.653083 2.1629585 0.06064505
33.759565 2.1629585 0.06064505
35.865964 2.1629585 0.06064505
37.972445 2.1629585 0.06064505
40.074718 2.1629585 0.06064505
0.06064505 4.2693908 0.06064505
2.1629585 4.2693908 0.06064505
4.2693908 4.2693908 0.06064505
6.3758312 4.2693908 0.06064505
8.4822797 4.2693908 0.06064505
10.588679 4.2693908 0.06064505
12.695161 4.2693908 0.06064505
14.80156 4.2693908 0.06064505
16.908041 4.2693908 0.06064505
19.014441 4.2693908 0.06064505
21.120922 4.2693908 0.06064505
23.227322 4.2693908 0.06064505
25.333803 4.2693908 0.06064505
27.440202 4.2693908 0.06064505
29.546684 4.2693908 0.06064505
31.653083 4.2693908 0.06064505
33.759565 4.2693908 0.06064505
35.865964 4.2693908 0.06064505
37.972445 4.2693908 0.06064505
40.074718 4.2693908 0.06064505
0.06064505 6.3758312 0.06064505
2.1629585 6.3758312 0.06064505
4.2693908 6.3758312 0.06064505
6.3758312 6.3758312 0.06064505
8.4822797 6.3758312 0.06064505
10.588679 6.3758312 0.06064505
12.695161 6.3758312 0.06064505
14.80156 6.3758312 0.06064505
16.908041 6.3758312 0.06064505
19.014441 6.3758312 0.06064505
21.120922 6.3758312 0.06064505
23.227322 6.3758312 0.06064505
25.333803 6.3758312 0.06064505
27.440202 6.3758312 0.06064505
29.546684 6.3758312 0.06064505
31.653083 6.3758312 0.06064505
33.759565 6.3758312 0.06064505
35.865964 6.3758312 0.06064505
37.972445 6.3758312 0.06064505
40.074718 6.3758312 0.06064505
0.06064505 8.4822797 0.06064505
2.1629585 8.4822797 0.06064505
4.2693908 8.4822797 0.06064505
6.3758312 8.4822797 0.06064505
8.4822797 8.4822797 0.06064505
10.588679 8.4822797 0.06064505
12.695161 8.4822797 0.06064505
14.80156 8.4822797 0.06064505
16.908041 8.4822797 0.06064505
19.014441 8.4822797 0.06064505
21.120922 8.4822797 0.06064505
23.227322 8.4822797 0.06064505
25.333803 8.4822797 0.06064505
27.440202 8.4822797 0.06064505
29.546684 8.4822797 0.06064505
31.653083 8.4822797 0.06064505
33.759565 8.4822797 0.06064505
35.865964 8.4822797 0.06064505
37.972445 8.4822797 0.06064505
40.074718 8.4822797 0.06064505
0.06064505 10.588679 0.06064505
2.1629585 10.588679 0.06064505
4.2693908 10.588679 0.06064505
6.3758312 10.588679 0.06064505
8.4822797 10.588679 0.06064505
10.588679 10.588679 0.06064505
12.695161 10.588679 0.06064505
14.80156 10.588679 0.06064505
16.908041 10.588679 0.06064505
19.014441 10.588679 0.06064505
21.120922 10.588679 0.06064505
23.227322 10.588679 0.06064505
25.333803 10.588679 0.06064505
27.440202 10.588679 0.06064505
29.546684 10.588679 0.06064505
31.653083 10.588679 0.06064505
33.759565 10.588679 0.06064505
35.865964 10.588679 0.06064505
37.972445 10.588679 0.06064505
40.074718 10.588679 0.06064505
0.06064505 12.695161 0.06064505
2.1629585 12.695161 0.06064505
4.2693908 12.695161 0.06064505
6.3758312 12.695161 0.06064505
8.4822797 12.695161 0.06064505
10.588679 12.695161 0.06064505
12.695161 12.695161 0.06064505
14.80156 12.695161 0.06064505
16.908041 12.695161 0.06064505
19.014441 12.695161 0.06064505
21.120922 12.695161 0.06064505
23.227322 12.695161 0.06064505
25.333803 12.695161 0.06064505
27.440202 12.695161 0.06064505
29.546684 12.695161 0.06064505
31.653083 12.695161 0.06064505
33.759565 12.695161 0.06064505
35.865964 12.695161 0.06064505
37.972445 12.695161 0.06064505
40.074718 12.695161 0.06064505
0.06064505 14.80156 0.06064505
2.1629585 14.80156 0.06064505
4.2693908 14.80156 0.06064505
6.3758312 14.80156 0.06064505
8.4822797 14.80156 0.06064505
10.588679 14.80156 0.06064505
12.695161 14.80156 0.06064505
14.80156 14.80156 0.06064505
16.908041 14.80156 0.06064505
19.014441 14.80156 0.06064505
21.120922 14.80156 0.06064505
23.227322 14.80156 0.06064505
25.333803 14.80156 0.06064505
27.440202 14.80156 0.06064505
29.546684 14.80156 0.06064505
31.653083 14.80156 0.06064505
33.759565 14.80156 0.06064505
35.865964 14.80156 0.06064505
37.972445 14.80156 0.06064505
40.074718 14.80156 0.06064505
0.06064505 16.908041 0.06064505
2.1629585 16.908041 0.06064505
4.2693908 16.908041 0.06064505
6.3758312 16.908041 0.06064505
8.4822797 16.908041 0.06064505
10.588679 16.908041 0.06064505
12.695161 16.908041 0.06064505
14.80156 16.908041 0.06064505
16.908041 16.908041 0.06064505
19.014441 16.908041 0.06064505
21.120922 16.908041 0.06064505
23.227322 16.908041 0.06064505
25.333803 16.908041 0.06064505
27.440202 16.908041 0.06064505
29.546684 16.908041 0.06064505
31.653083 16.908041 0.06064505
33.759565 16.908041 0.06064505
35.865964 16.908041 0.06064505
37.972445 16.908041 0.06064505
40.074718 16.908041 0.06064505
0.06064505 19.014441 0.06064505
2.1629585 19.014441 0.06064505
4.2693908 19.014441 0.06064505
6.3758312 19.014441 0.06064505
8.4822797 19.014441 0.06064505
10.588679 19.014441 0.06064505
12.695161 19.014441 0.06064505
14.80156 19.014441 0.06064505
16.908041 19.014441 0.06064505
19.014441 19.014441 0.06064505
21.120922 19.014441 0.06064505
23.227322 19.014441 0.06064505
25.333803 19.014441 0.06064505
27.440202 19.014441 0.06064505
29.546684 19.014441 0.06064505
31.653083 19.014441 0.06064505
33.759565 19.014441 0.06064505
35.865964 19.014441 0.06064505
37.972445 19.014441 0.06064505
40.074718 19.014441 0.06064505
0.06064505 21.120922 0.06064505
2.1629585 21.120922 0.06064505
4.2693908 21.120922 0.06064505
6.3758312 21.120922 0.06064505
8.4822797 21.120922 0.06064505
10.588679 21.120922 0.06064505
12.695161 21.120922 0.06064505
14.80156 21.120922 0.06064505
16.908041 21.120922 0.06064505
19.014441 21.120922 0.06064505
21.120922 21.120922 0.06064505
23.227322 21.120922 0.06064505
25.333803 21.120922 0.06064505
27.440202 21.120922 0.06064505
29.546684 21.120922 0.06064505
31.653083 21.120922 0.06064505
33.759565 21.120922 0.06064505
35.865964 21.120922 0.06064505
37.972445 21.120922 0.06064505
40.074718 21.120922 0.06064505
0.06064505 23.227322 0.06064505
2.1629585 23.227322 0.06064505
4.2693908 23.227322 0.06064505
6.3758312 23.227322 0.06064505
8.4822797 23.227322 0.06064505
10.588679 23.227322 0.06064505
12.695161 23.227322 0.06064505
14.80156 23.227322 0.06064505
16.908041 23.227322 0.06064505
19.014441 23.227322 0.06064505
21.120922 23.227322 0.06064505
23.227322 23.227322 0.06064505
25.333803 23.227322 0.06064505
27.440202 23.227322 0.06064505
29.546684 23.227322 0.06064505
31.653083 23.227322 0.06064505
33.759565 23.227322 0.06064505
35.865964 23.227322 0.06064505
37.972445 23.227322 0.06064505
40.074718 23.227322 0.06064505
0.06064505 25.333803 0.06064505
2.1629585 25.333803 0.06064505
4.2693908 25.333803 0.06064505
6.3758312 25.333803 0.06064505
8.4822797 25.333803 0.06064505
10.588679 25.333803 0.06064505
12.695161 25.333803 0.06064505
14.80156 25.333803 0.06064505
16.908041 25.333803 0.06064505
19.014441 25.333803 0.06064505
21.120922 25.333803 0.06064505
23.227322 25.333803 0.06064505
25.333803 25.333803 0.06064505
27.440202 25.333803 0.06064505
29.546684 25.333803 0.06064505
31.653083 25.333803 0.06064505
33.759565 25.333803 0.06064505
35.865964 25.333803 0.06064505
37.972445 25.333803 0.06064505
40.074718 25.333803 0.06064505
0.06064505 27.440202 0.06064505
2.1629585 27.440202 0.06064505
4.2693908 27.440202 0.06064505
6.3758312 27.440202 0.06064505
8.4822797 27.440202 0.06064505
10.588679 27.440202 0.06064505
12.695161 27.440202 0.06064505
14.80156 27.440202 0.06064505
16.908041 27.440202 0.06064505
19.014441 27.440202 0.06064505
21.120922 27.440202 0.06064505
23.227322 27.440202 0.06064505
25.333803 27.440202 0.06064505
27.440202 27.440202 0.06064505
29.546684 27.440202 0.06064505
31.653083 27.440202 0.06064505
33.759565 27.440202 0.06064505
35.865964 27.440202 0.06064505
37.972445 27.440202 0.06064505
40.074718 27.440202 0.06064505
0.06064505 29.546684 0.06064505
2.1629585 29.546684 0.06064505
4.2693908 29.546684 0.06064505
6.3758312 29.546684 0.06064505
8.4822797 29.546684 0.06064505
10.588679 29.546684 0.06064505
12.695161 29.546684 0.06064505
14.80156 29.546684 0.06064505
16.908041 29.546684 0.06064505
19.014441 29.546684 0.06064505
21.120922 29.546684 0.06064505
23.227322 29.546684 0.06064505
25.333803 29.546684 0.06064505
27.440202 29.546684 0.06064505
29.546684 29.546684 0.06064505
31.653083 29.546684 0.06064505
33.759565 29.546684 0.06064505
35.865964 29.546684 0.06064505
37.972445 29.546684 0.06064505
40.074718 29.546684 0.06064505
0.06064505 31.653083 0.06064505
2.1629585 31.653083 0.06064505
4.2693908 31.653083 0.06064505
6.3758312 31.653083 0.06064505
8.4822797 31.653083 0.06064505
10.588679 31.653083 0.06064505
12.695161 31.653083 0.06064505
14.80156 31.653083 0.06064505
16.908041 31.653083 0.06064505
19.014441 31.653083 0.06064505
21.120922 31.653083 0.06064505
23.227322 31.653083 0.06064505
25.333803 31.653083 0.06064505
27.440202 31.653083 0.06064505
29.546684 31.653083 0.06064505
31.653083 31.653083 0.06064505
33.759565 31.653083 0.06064505
35.865964 31.653083 0.06064505
37.972445 31.653083 0.06064505
[...]
POINT_DATA 3000
SCALARS m double
LOOKUP_TABLE default
1
1
1
1
1
1
1
1
1
1
1
1
1
1
1
1
1
1
1
1
1
1
1
1
1
1
1
1
1
1
1
1
1
1
1
1
1
1
1
1
1
1
1
1
1
1
1
1
1
1
1
1
1
1
1
1
1
1
1
1
1
1
1
1
1
1
1
1
1
1
1
1
1
1
1
1
1
1
1
1
1
1
1
1
1
1
1
1
1
1
1
1
1
1
1
1
1
1
1
1
1
1
1
1
1
1
1
1
1
1
1
1
1
1
1
1
1
1
1
1
1
1
1
1
1
1
1
1
1
1
1
1
1
1
1
1
1
1
1
1
1
1
1
1
1
1
1
1
1
1
1
1
1
1
1
1
1
1
1
1
1
1
1
1
1
1
1
1
1
1
1
1
1
1
1
1
1
1
1
1
1
1
1
1
1
1
1
1
1
1
1
1
1
1
1
1
1
1
1
1
1
1
1
1
1
1
1
1
1
1
1
1
1
1
1
1
1
1
1
1
1
1
1
1
1
1
1
1
1
1
1
1
1
1
1
1
1
1
1
1
1
1
1
1
1
1
1
1
1
1
1
1
1
1
1
1
1
1
1
1
1
1
1
1
1
1
1
1
1
1
1
1
1
1
1
1
1
1
1
1
1
1
1
1
1
1
1
1
1
1
1
1
1
1
1
1
1
1
1
1
1
1
1
1
1
1
1
1
1
1
1
1
1
1
1
1
1
1
1
1
1
1
1
1
1
1
1
1
1
1
1
1
1
1
1
1
1
1
1
1
1
1
1
1
1
1
1
1
1
1
1
1
1
1
1
1
1
1
1
1
1
1
1
1
1
1
1
1
1
1
1
1
1
1
1
1
1
1
1
1
1
1
1
1
1
1
1
1
1
1
1
1
1
1
1
1
1
1
1
1
1
1
1
1
1
1
1
1
1
1
1
1
1
1
1
1
1
1
1
1
1
1
1
1
1
1
1
1
1
1
1
1
1
1
1
1
1
1
1
1
1
1
1
1
1
1
1
1
1
1
1
1
1
1
1
1
1
1
1
1
1
1
1
1
1
1
1
1
1
1
1
1
1
1
1
1
1
1
1
1
1
1
1
1
1
1
1
1
1
1
1
1
1
1
1
1
1
1
1
1
1
1
1
1
1
1
1
1
1
1
1
1
1
1
1
1
1
1
1
1
1
1
1
1
1
1
1
1
1
1
1
1
1
1
1
1
1
1
1
1
1
1
1
1
1
1
1
1
1
1
1
1
1
1
1
1
1
1
1
1
1
1
1
1
1
1
1
1
1
1
1
1
1
1
1
1
1
1
1
1
1
1
1
1
1
1
1
1
1
1
1
1
1
1
1
1
1
1
1
1
1
1
1
1
1
1
1
1
1
1
1
1
1
1
1
1
1
1
1
1
1
1
1
1
1
1
1
1
1
1
1
1
1
1
1
1
1
1
1
1
1
1
1
1
1
1
1
1
1
1
1
1
1
1
1
1
1
1
1
1
1
1
1
1
1
1
1
1
1
1
1
1
1
1
1
1
1
1
1
1
1
1
1
1
1
1
1
1
1
1
1
1
1
1
1
1
1
1
1
1
1
1
1
1
1
1
1
1
1
1
1
1
1
1
1
1
1
1
1
1
1
1
1
1
1
1
1
1
1
1
1
1
1
1
1
1
1
1
1
1
1
1
1
1
1
1
1
1
1
1
1
1
1
1
1
1
1
1
1
1
1
1
1
1
1
1
1
1
1
1
1
1
1
1
1
1
1
1
1
1
1
1
1
1
1
1
1
1
1
1
1
1
1
1
1
1
1
1
1
1
1
1
1
1
1
1
1
1
1
1
1
1
1
1
1
1
1
1
1
1
1
1
1
1
1
1
1
1
1
1
1
1
1
1
1
1
1
1
1
1
1
1
1
1
1
1
1
1
1
1
1
1
1
1
1
1
1
1
1
1
1
1
1
1
1
1
1
1
1
1
1
1
1
1
1
1
1
1
1
1
1
1
1
1
1
1
1
1
1
1
1
1
1
1
1
1
1
1
1
1
1
1
1
1
1
1
1
1
1
1
1
1
1
1
1
1
1
1
1
1
1
1
1
1
1
1
1
1
1
1
1
1
1
1
1
1
1
1
1
1
1
1
1
1
1
1
1
1
1
1
1
1
1
1
1
1
1
1
1
1
1
1
1
1
1
1
1
1
1
1
1
1
1
1
1
1
1
1
1
1
1
1
1
1
1
1
1
1
1
1
1
1
1
1
1
1
1
1
1
1
1
1
1
1
1
1
1
1
1
1
1
1
1
1
1
1
1
1
1
1
1
1
1
1
1
1
1
1
1
1
1
1
1
1
1
1
1
1
1
1
1
1
1
1
1
1
1
1
1
1
1
1
1
1
1
1
1
1
1
1
1
1
1
1
1
1
1
1
1
1
1
1
1
1
1
1
1
1
1
1
1
1
1
1
1
1
1
1
1
1
1
1
1
1
1
1
1
1
1
1
1
1
1
1
1
1
1
1
1
1
1
1
1
1
1
1
1
1
1
1
1
1
1
1
1
1
1
1
1
1
1
1
1
1
1
1
1
1
1
1
1
1
1
1
1
1
1
1
1
1
1
1
1
1
1
1
1
1
1
1
1
1
1
1
1
1
1
1
1
1
1
1
1
1
1
1
1
1
1
1
1
1
1
1
1
1
1
1
1
1
1
1
1
1
1
1
1
1
1
1
1
1
1
1
1
1
1
1
1
1
1
1
1
1
1
1
1
1
1
1
1
1
1
1
1
1
1
1
1
1
1
1
1
1
1
1
1
1
1
1
1
1
1
1
1
1
1
1
1
1
1
1
1
1
1
1
1
1
1
1
1
1
1
1
1
1
1
1
1
1
1
1
1
1
1
1
1
1
1
1
1
1
1
1
1
1
1
1
1
1
1
1
1
1
1
1
1
1
1
1
1
1
1
1
1
1
1
1
1
1
1
1
1
1
1
1
1
1
1
1
1
1
1
1
1
1
1
1
1
1
1
1
1
1
1
1
1
1
1
1
1
1
1
1
1
1
1
1
1
1
1
1
1
1
1
1
1
1
1
1
1
1
1
1
1
1
1
1
1
1
1
1
1
1
1
1
1
1
1
1
1
1
1
1
1
1
1
1
1
1
1
1
1
1
1
1
1
1
1
1
1
1
1
1
1
1
1
1
1
1
1
1
1
1
1
1
1
1
1
1
1
1
1
1
1
1
1
1
1
1
1
1
1
1
1
1
1
1
1
1
1
1
1
1
1
1
1
1
1
1
1
1
1
1
1
1
1
1
1
1
1
1
1
1
1
1
1
1
1
1
1
1
1
1
1
1
1
1
1
1
1
1
1
1
1
1
1
1
1
1
1
1
1
1
1
1
1
1
1
1
1
1
1
1
1
1
1
1
1
1
1
1
1
1
1
1
1
1
1
1
1
1
1
1
1
1
1
1
1
1
1
1
1
1
1
1
1
1
1
1
1
1
1
1
1
1
1
1
1
1
1
1
1
1
1
1
1
1
1
1
1
1
1
1
1
1
1
1
1
1
1
1
1
1
1
1
1
1
1
1
1
1
1
1
1
1
1
1
1
1
1
1
1
1
1
1
1
1
1
1
1
1
1
1
1
1
1
1
1
1
1
1
1
1
1
1
1
1
1
1
1
1
1
1
1
1
1
1
1
1
1
1
1
1
1
1
1
1
1
1
1
1
1
1
1
1
1
1
1
1
1
1
1
1
1
1
1
1
1
1
1
1
1
1
1
1
1
1
1
1
1
1
1
1
1
1
1
1
1
1
1
1
1
1
1
1
1
1
1
1
1
1
1
1
1
1
1
1
1
1
1
1
1
1
1
1
1
1
1
1
1
1
1
1
1
1
1
1
1
1
1
1
1
1
1
1
1
1
1
1
1
1
1
1
1
1
1
1
1
1
1
1
1
1
1
1
1
1
1
1
1
1
1
1
1
1
1
1
1
1
1
1
1
1
1
1
1
1
1
1
1
1
1
1
1
1
1
1
1
1
1
1
1
1
1
1
1
1
1
1
1
1
1
1
1
1
1
1
1
1
1
1
1
1
1
1
1
1
1
1
1
1
1
1
1
1
1
1
1
1
1
1
1
1
1
1
1
1
1
1
1
1
1
1
1
1
1
1
1
1
1
1
1
1
1
1
1
1
1
1
1
1
1
1
1
1
1
1
1
1
1
1
1
1
1
1
1
1
1
1
1
1
1
1
1
1
1
1
1
1
1
1
1
1
1
1
1
1
1
1
1
1
1
1
1
1
1
1
1
1
1
1
1
1
1
1
1
1
1
1
1
1
1
1
1
1
1
1
1
1
1
1
1
1
1
1
1
1
1
1
1
1
1
1
1
1
1
1
1
1
1
1
1
1
1
1
1
1
1
1
1
1
1
1
1
1
1
1
1
1
1
1
1
1
1
1
1
1
1
1
1
1
1
1
1
1
1
1
1
1
1
1
1
1
1
1
1
1
1
1
1
1
1
1
1
1
1
1
1
1
1
1
1
1
1
1
1
1
1
1
1
1
1
1
1
1
1
1
1
1
1
1
1
1
1
1
1
1
1
1
1
1
1
1
1
1
1
1
1
1
1
1
1
1
1
1
1
1
1
1
1
1
1
1
1
1
1
1
1
1
1
1
1
1
1
1
1
1
1
1
1
1
1
1
1
1
1
1
1
1
1
1
1
1
1
1
1
1
1
1
1
1
1
1
1
1
1
1
1
1
1
1
1
1
1
1
1
1
1
1
1
1
1
1
1
1
1
1
1
1
1
1
1
1
1
1
1
1
1
1
1
1
1
1
1
1
1
1
1
1
1
1
1
1
1
1
1
1
1
1
1
1
1
1
1
1
1
1
1
1
1
1
1
1
1
1
1
1
1
1
1
1
1
1
1
1
1
1
1
1
1
1
1
1
1
1
1
1
1
1
1
1
1
1
1
1
1
1
1
1
1
1
1
1
1
1
1
1
1
1
1
1
1
1
1
1
1
1
1
1
1
1
1
1
1
1
1
1
1
1
1
1
1
1
1
1
1
1
1
1
1
1
1
1
1
1
1
1
1
1
1
1
1
1
1
1
1
1
1
1
1
1
1
1
1
1
1
1
1
1
1
1
1
1
1
1
1
1
1
1
1
1
1
1
1
1
1
1
1
1
1
1
1
1
1
1
1
1
1
1
1
1
1
1
1
1
1
1
1
1
1
1
1
1
1
1
1
1
1
1
1
1
1
1
1
1
1
1
1
1
1
1
1
1
1
1
1
1
1
1
1
1
1
1
1
1
1
1
1
1
1
1
1
1
1
1
1
1
1
1
1
1
1
1
1
1
1
1
1
1
1
1
1
1
1
1
1
1
1
1
1
1
1
1
1
1
1
1
1
1
1
1
1
1
1
1
1
1
1
1
1
1
1
1
1
1
1
1
1
1
1
1
1
1
1
1
1
1
1
1
1
1
1
1
1
1
1
1
1
1
1
1
1
1
1
1
1
1
1
1
1
1
1
1
1
1
1
1
1
1
1
1
1
1
1
1
1
1
1
1
1
1
1
1
1
1
1
1
1
1
1
1
1
1
1
1
1
1
1
1
1
1
1
1
1
1
1
1
1
1
1
1
1
1
1
1
1
1
1
1
1
1
1
1
1
1
1
1
1
1
1
1
1
1
1
1
1
1
1
1
1
1
1
1
1
1
1
1
1
1
1
1
1
1
1
1
1
1
1
1
1
1
1
1
1
1
1
1
1
1
1
1
1
1
1
1
1
1
1
1
1
1
1
1
1
1
1
1
1
1
1
1
1
1
1
1
1
1
1
1
1
1
1
1
1
1
1
1
1
1
1
1
1
1
1
1
1
1
1
1
1
1
1
1
1
1
1
1
1
1
1
1
1
1
1
1
1
1
1
1
1
1
1
1
1
1
1
1
1
1
1
1
1
1
1
1
1
1
1
1
1
1
1
1
1
1
1
1
1
1
1
1
1
1
1
1
1
1
1
1
1
1
1
1
1
1
1
1
1
1
1
1
1
1
1
1
1
1
1
1
1
1
1
1
1
1
1
1
1
1
1
1
1
1
1
1
1
1
1
1
1
1
1
1
1
1
1
1
1
1
1
1
1
1
1
1
1
1
1
1
1
1
1
1
1
1
1
1
1
1
1
1
1
1
1
1
1
1
1
1
1
1
1
1
1
1
1
1
1
1
1
1
1
1
1
1
1
1
1
1
1
1
1
1
1
1
1
1
1
1
1
1
1
1
1
1
1
1
1
1
1
1
1
1
1
1
1
1
1
1
1
1
1
1
1
1
1
1
1
1
1
1
1
1
1
1
1
1
1
1
1
1
1
1
1
1
1
1
1
1
1
1
1
1
1
1
1
1
1
1
1
1
1
1
1
1
1
1
1
1
1
1
1
1
1
1
1
1
1
1
1
1
1
1
1
1
1
1
1
1
1
1
1
1
1
1
1
1
1
1
1
1
1
1
1
1
1
1
1
1
1
1
1
1
1
1
1
1
1
1
1
1
1
1
1
1
1
1
1
1
1
1
1
1
1
1
1
1
1
1
1
1
1
1
1
1
1
1
1
1
1
1
1
1
1
1
1
1
1
1
1
1
1
1
1
1
1
1
1
1
1
1
1
1
1
1
1
1
1
1
1
1
1
1
1
1
1
1
1
1
1
1
1
1
1
1
1
1
1
1
1
1
1
1
1
1
1
1
1
1
1
1
1
1
1
1
1
1
1
1
1
1
1
1
1
1
1
1
1
1
VECTORS v double
-1.3907624 -1.3907624 -1.3907624
-2.8844956 -1.3907624 -1.3907624
-4.3724424 -1.3907624 -1.3907624
-5.860395 -1.3907624 -1.3907624
-7.3483533 -1.3907624 -1.3907624
-8.8362771 -1.3907624 -1.3907624
-10.324258 -1.3907624 -1.3907624
-11.812182 -1.3907624 -1.3907624
-13.300164 -1.3907624 -1.3907624
-14.788087 -1.3907624 -1.3907624
-16.276069 -1.3907624 -1.3907624
-17.763993 -1.3907624 -1.3907624
-19.251974 -1.3907624 -1.3907624
-20.739898 -1.3907624 -1.3907624
-22.227879 -1.3907624 -1.3907624
-23.715803 -1.3907624 -1.3907624
-25.203784 -1.3907624 -1.3907624
-26.691708 -1.3907624 -1.3907624
-28.179689 -1.3907624 -1.3907624
-29.673394 -1.3907624 -1.3907624
-1.3907624 -2.8844956 -1.3907624
-2.8844956 -2.8844956 -1.3907624
-4.3724424 -2.8844956 -1.3907624
-5.860395 -2.8844956 -1.3907624
-7.3483533 -2.8844956 -1.3907624
-8.8362771 -2.8844956 -1.3907624
-10.324258 -2.8844956 -1.3907624
-11.812182 -2.8844956 -1.3907624
-13.300164 -2.8844956 -1.3907624
-14.788087 -2.8844956 -1.3907624
-16.276069 -2.8844956 -1.3907624
-17.763993 -2.8844956 -1.3907624
-19.251974 -2.8844956 -1.3907624
-20.739898 -2.8844956 -1.3907624
-22.227879 -2.8844956 -1.3907624
-23.715803 -2.8844956 -1.3907624
-25.203784 -2.8844956 -1.3907624
-26.691708 -2.8844956 -1.3907624
-28.179689 -2.8844956 -1.3907624
-29.673394 -2.8844956 -1.3907624
-1.3907624 -4.3724424 -1.3907624
-2.8844956 -4.3724424 -1.3907624
-4.3724424 -4.3724424 -1.3907624
-5.860395 -4.3724424 -1.3907624
-7.3483533 -4.3724424 -1.3907624
-8.8362771 -4.3724424 -1.3907624
-10.324258 -4.3724424 -1.3907624
-11.812182 -4.3724424 -1.3907624
-13.300164 -4.3724424 -1.3907624
-14.788087 -4.3724424 -1.3907624
-16.276069 -4.3724424 -1.3907624
-17.763993 -4.3724424 -1.3907624
-19.251974 -4.3724424 -1.3907624
-20.739898 -4.3724424 -1.3907624
-22.227879 -4.3724424 -1.3907624
-23.715803 -4.3724424 -1.3907624
-25.203784 -4.3724424 -1.3907624
-26.691708 -4.3724424 -1.3907624
-28.179689 -4.3724424 -1.3907624
-29.673394 -4.3724424 -1.3907624
-1.3907624 -5.860395 -1.3907624
-2.8844956 -5.860395 -1.3907624
-4.3724424 -5.860395 -1.3907624
-5.860395 -5.860395 -1.3907624
-7.3483533 -5.860395 -1.3907624
-8.8362771 -5.860395 -1.3907624
-10.324258 -5.860395 -1.3907624
-11.812182 -5.860395 -1.3907624
-13.300164 -5.860395 -1.3907624
-14.788087 -5.860395 -1.3907624
-16.276069 -5.860395 -1.3907624
-17.763993 -5.860395 -1.3907624
-19.251974 -5.860395 -1.3907624
-20.739898 -5.860395 -1.3907624
-22.227879 -5.860395 -1.3907624
-23.715803 -5.860395 -1.3907624
-25.203784 -5.860395 -1.3907624
-26.691708 -5.860395 -1.3907624
-28.179689 -5.860395 -1.3907624
-29.673394 -5.860395 -1.3907624
-1.3907624 -7.3483533 -1.3907624
-2.8844956 -7.3483533 -1.3907624
-4.3724424 -7.3483533 -1.3907624
-5.860395 -7.3483533 -1.3907624
-7.3483533 -7.3483533 -1.3907624
-8.8362771 -7.3483533 -1.3907624
-10.324258 -7.3483533 -1.3907624
-11.812182 -7.3483533 -1.3907624
-13.300164 -7.3483533 -1.3907624
-14.788087 -7.3483533 -1.3907624
-16.276069 -7.3483533 -1.3907624
-17.763993 -7.3483533 -1.3907624
-19.251974 -7.3483533 -1.3907624
-20.739898 -7.3483533 -1.3907624
-22.227879 -7.3483533 -1.3907624
-23.715803 -7.3483533 -1.3907624
-25.203784 -7.3483533 -1.3907624
-26.691708 -7.3483533 -1.3907624
-28.179689 -7.3483533 -1.3907624
-29.673394 -7.3483533 -1.3907624
-1.3907624 -8.8362771 -1.3907624
-2.8844956 -8.8362771 -1.3907624
-4.3724424 -8.8362771 -1.3907624
-5.860395 -8.8362771 -1.3907624
-7.3483533 -8.8362771 -1.3907624
-8.8362771 -8.8362771 -1.3907624
-10.324258 -8.8362771 -1.3907624
-11.812182 -8.8362771 -1.3907624
-13.300164 -8.8362771 -1.3907624
-14.788087 -8.8362771 -1.3907624
-16.276069 -8.8362771 -1.3907624
-17.763993 -8.8362771 -1.3907624
-19.251974 -8.8362771 -1.3907624
-20.739898 -8.8362771 -1.3907624
-22.227879 -8.8362771 -1.3907624
-23.715803 -8.8362771 -1.3907624
-25.203784 -8.8362771 -1.3907624
-26.691708 -8.8362771 -1.3907624
-28.179689 -8.8362771 -1.3907624
-29.673394 -8.8362771 -1.3907624
-1.3907624 -10.324258 -1.3907624
-2.8844956 -10.324258 -1.3907624
-4.3724424 -10.324258 -1.3907624
-5.860395 -10.324258 -1.3907624
-7.3483533 -10.324258 -1.3907624
-8.8362771 -10.324258 -1.3907624
-10.324258 -10.324258 -1.3907624
-11.812182 -10.324258 -1.3907624
-13.300164 -10.324258 -1.3907624
-14.788087 -10.324258 -1.3907624
-16.276069 -10.324258 -1.3907624
-17.763993 -10.324258 -1.3907624
-19.251974 -10.324258 -1.3907624
-20.739898 -10.324258 -1.3907624
-22.227879 -10.324258 -1.3907624
-23.715803 -10.324258 -1.3907624
-25.203784 -10.324258 -1.3907624
-26.691708 -10.324258 -1.3907624
-28.179689 -10.324258 -1.3907624
-29.673394 -10.324258 -1.3907624
-1.3907624 -11.812182 -1.3907624
-2.8844956 -11.812182 -1.3907624
-4.3724424 -11.812182 -1.3907624
-5.860395 -11.812182 -1.3907624
-7.3483533 -11.812182 -1.3907624
-8.8362771 -11.812182 -1.3907624
-10.324258 -11.812182 -1.3907624
-11.812182 -11.812182 -1.3907624
-13.300164 -11.812182 -1.3907624
-14.788087 -11.812182 -1.3907624
-16.276069 -11.812182 -1.3907624
-17.763993 -11.812182 -1.3907624
-19.251974 -11.812182 -1.3907624
-20.739898 -11.812182 -1.3907624
-22.227879 -11.812182 -1.3907624
-23.715803 -11.812182 -1.3907624
-25.203784 -11.812182 -1.3907624
-26.691708 -11.812182 -1.3907624
-28.179689 -11.812182 -1.3907624
-29.673394 -11.812182 -1.3907624
-1.3907624 -13.300164 -1.3907624
-2.8844956 -13.300164 -1.3907624
-4.3724424 -13.300164 -1.3907624
-5.860395 -13.300164 -1.3907624
-7.3483533 -13.300164 -1.3907624
-8.8362771 -13.300164 -1.3907624
-10.324258 -13.300164 -1.3907624
-11.812182 -13.300164 -1.3907624
-13.300164 -13.300164 -1.3907624
-14.788087 -13.300164 -1.3907624
-16.276069 -13.300164 -1.3907624
-17.763993 -13.300164 -1.3907624
-19.251974 -13.300164 -1.3907624
-20.739898 -13.300164 -1.3907624
-22.227879 -13.300164 -1.3907624
-23.715803 -13.300164 -1.3907624
-25.203784 -13.300164 -1.3907624
-26.691708 -13.300164 -1.3907624
-28.179689 -13.300164 -1.3907624
-29.673394 -13.300164 -1.3907624
-1.3907624 -14.788087 -1.3907624
-2.8844956 -14.788087 -1.3907624
-4.3724424 -14.788087 -1.3907624
-5.860395 -14.788087 -1.3907624
-7.3483533 -14.788087 -1.3907624
-8.8362771 -14.788087 -1.3907624
-10.324258 -14.788087 -1.3907624
-11.812182 -14.788087 -1.3907624
-13.300164 -14.788087 -1.3907624
-14.788087 -14.788087 -1.3907624
-16.276069 -14.788087 -1.3907624
-17.763993 -14.788087 -1.3907624
-19.251974 -14.788087 -1.3907624
-20.739898 -14.788087 -1.3907624
-22.227879 -14.788087 -1.3907624
-23.715803 -14.788087 -1.3907624
-25.203784 -14.788087 -1.3907624
-26.691708 -14.788087 -1.3907624
-28.179689 -14.788087 -1.3907624
-29.673394 -14.788087 -1.3907624
-1.3907624 -16.276069 -1.3907624
-2.8844956 -16.276069 -1.3907624
-4.3724424 -16.276069 -1.3907624
-5.860395 -16.276069 -1.3907624
-7.3483533 -16.276069 -1.3907624
-8.8362771 -16.276069 -1.3907624
-10.324258 -16.276069 -1.3907624
-11.812182 -16.276069 -1.3907624
-13.300164 -16.276069 -1.3907624
-14.788087 -16.276069 -1.3907624
-16.276069 -16.276069 -1.3907624
-17.763993 -16.276069 -1.3907624
-19.251974 -16.276069 -1.3907624
-20.739898 -16.276069 -1.3907624
-22.227879 -16.276069 -1.3907624
-23.715803 -16.276069 -1.3907624
-25.203784 -16.276069 -1.3907624
-26.691708 -16.276069 -1.3907624
-28.179689 -16.276069 -1.3907624
-29.673394 -16.276069 -1.3907624
-1.3907624 -17.763993 -1.3907624
-2.8844956 -17.763993 -1.3907624
-4.3724424 -17.763993 -1.3907624
-5.860395 -17.763993 -1.3907624
-7.3483533 -17.763993 -1.3907624
-8.8362771 -17.763993 -1.3907624
-10.324258 -17.763993 -1.3907624
-11.812182 -17.763993 -1.3907624
-13.300164 -17.763993 -1.3907624
-14.788087 -17.763993 -1.3907624
-16.276069 -17.763993 -1.3907624
-17.763993 -17.763993 -1.3907624
-19.251974 -17.763993 -1.3907624
-20.739898 -17.763993 -1.3907624
-22.227879 -17.763993 -1.3907624
-23.715803 -17.763993 -1.3907624
-25.203784 -17.763993 -1.3907624
-26.691708 -17.763993 -1.3907624
-28.179689 -17.763993 -1.3907624
-29.673394 -17.763993 -1.3907624
-1.3907624 -19.251974 -1.3907624
-2.8844956 -19.251974 -1.3907624
-4.3724424 -19.251974 -1.3907624
-5.860395 -19.251974 -1.3907624
-7.3483533 -19.251974 -1.3907624
-8.8362771 -19.251974 -1.3907624
-10.324258 -19.251974 -1.3907624
-11.812182 -19.251974 -1.3907624
-13.300164 -19.251974 -1.3907624
-14.788087 -19.251974 -1.3907624
-16.276069 -19.251974 -1.3907624
-17.763993 -19.251974 -1.3907624
-19.251974 -19.251974 -1.3907624
-20.739898 -19.251974 -1.3907624
-22.227879 -19.251974 -1.3907624
-23.715803 -19.251974 -1.3907624
-25.203784 -19.251974 -1.3907624
-26.691708 -19.251974 -1.3907624
-28.179689 -19.251974 -1.3907624
-29.673394 -19.251974 -1.3907624
-1.3907624 -20.739898 -1.3907624
-2.8844956 -20.739898 -1.3907624
-4.3724424 -20.739898 -1.3907624
-5.860395 -20.739898 -1.3907624
-7.3483533 -20.739898 -1.3907624
-8.8362771 -20.739898 -1.3907624
-10.324258 -20.739898 -1.3907624
-11.812182 -20.739898 -1.3907624
-13.300164 -20.739898 -1.3907624
-14.788087 -20.739898 -1.3907624
-16.276069 -20.739898 -1.3907624
-17.763993 -20.739898 -1.3907624
-19.251974 -20.739898 -1.3907624
-20.739898 -20.739898 -1.3907624
-22.227879 -20.739898 -1.3907624
-23.715803 -20.739898 -1.3907624
-25.203784 -20.739898 -1.3907624
-26.691708 -20.739898 -1.3907624
-28.179689 -20.739898 -1.3907624
-29.673394 -20.739898 -1.3907624
-1.3907624 -22.227879 -1.3907624
-2.8844956 -22.227879 -1.3907624
-4.3724424 -22.227879 -1.3907624
-5.860395 -22.227879 -1.3907624
-7.3483533 -22.227879 -1.3907624
-8.8362771 -22.227879 -1.3907624
-10.324258 -22.227879 -1.3907624
-11.812182 -22.227879 -1.3907624
-13.300164 -22.227879 -1.3907624
-14.788087 -22.227879 -1.3907624
-16.276069 -22.227879 -1.3907624
-17.763993 -22.227879 -1.3907624
-19.251974 -22.227879 -1.3907624
-20.739898 -22.227879 -1.3907624
-22.227879 -22.227879 -1.3907624
-23.715803 -22.227879 -1.3907624
-25.203784 -22.227879 -1.3907624
-26.691708 -22.227879 -1.3907624
-28.179689 -22.227879 -1.3907624
-29.673394 -22.227879 -1.3907624
-1.3907624 -23.715803 -1.3907624
-2.8844956 -23.715803 -1.3907624
-4.3724424 -23.715803 -1.3907624
-5.860395 -23.715803 -1.3907624
-7.3483533 -23.715803 -1.3907624
-8.8362771 -23.715803 -1.3907624
-10.324258 -23.715803 -1.3907624
-11.812182 -23.715803 -1.3907624
-13.300164 -23.715803 -1.3907624
-14.788087 -23.715803 -1.3907624
-16.276069 -23.715803 -1.3907624
-17.763993 -23.715803 -1.3907624
-19.251974 -23.715803 -1.3907624
-20.739898 -23.715803 -1.3907624
-22.227879 -23.715803 -1.3907624
-23.715803 -23.715803 -1.3907624
-25.203784 -23.715803 -1.3907624
-26.691708 -23.715803 -1.3907624
-28.179689 -23.715803 -1.3907624
-29.673394 -23.715803 -1.3907624
-1.3907624 -25.203784 -1.3907624
-2.8844956 -25.203784 -1.3907624
-4.3724424 -25.203784 -1.3907624
-5.860395 -25.203784 -1.3907624
-7.3483533 -25.203784 -1.3907624
-8.8362771 -25.203784 -1.3907624
-10.324258 -25.203784 -1.3907624
-11.812182 -25.203784 -1.3907624
-13.300164 -25.203784 -1.3907624
-14.788087 -25.203784 -1.3907624
-16.276069 -25.203784 -1.3907624
-17.763993 -25.203784 -1.3907624
-19.251974 -25.203784 -1.3907624
-20.739898 -25.203784 -1.3907624
-22.227879 -25.203784 -1.3907624
-23.715803 -25.203784 -1.3907624
-25.203784 -25.203784 -1.3907624
-26.691708 -25.203784 -1.3907624
-28.179689 -25.203784 -1.3907624
-29.673394 -25.203784 -1.3907624
-1.3907624 -26.691708 -1.3907624
-2.8844956 -26.691708 -1.3907624
-4.3724424 -26.691708 -1.3907624
-5.860395 -26.691708 -1.3907624
-7.3483533 -26.691708 -1.3907624
-8.8362771 -26.691708 -1.3907624
-10.324258 -26.691708 -1.3907624
-11.812182 -26.691708 -1.3907624
-13.300164 -26.691708 -1.3907624
-14.788087 -26.691708 -1.3907624
-16.276069 -26.691708 -1.3907624
-17.763993 -26.691708 -1.3907624
-19.251974 -26.691708 -1.3907624
-20.739898 -26.691708 -1.3907624
-22.227879 -26.691708 -1.3907624
-23.715803 -26.691708 -1.3907624
-25.203784 -26.691708 -1.3907624
-26.691708 -26.691708 -1.3907624
-28.179689 -26.691708 -1.3907624
-29.673394 -26.691708 -1.3907624
-1.3907624 -28.179689 -1.3907624
-2.8844956 -28.179689 -1.3907624
-4.3724424 -28.179689 -1.3907624
-5.860395 -28.179689 -1.3907624
-7.3483533 -28.179689 -1.3907624
-8.8362771 -28.179689 -1.3907624
-10.324258 -28.179689 -1.3907624
-11.812182 -28.179689 -1.3907624
-13.300164 -28.179689 -1.3907624
-14.788087 -28.179689 -1.3907624
-16.276069 -28.179689 -1.3907624
-17.763993 -28.179689 -1.3907624
-19.251974 -28.179689 -1.3907624
-20.739898 -28.179689 -1.3907624
-22.227879 -28.179689 -1.3907624
-23.715803 -28.179689 -1.3907624
-25.203784 -28.179689 -1.3907624
-26.691708 -28.179689 -1.3907624
-28.179689 -28.179689 -1.3907624
-29.673394 -28.179689 -1.3907624
-1.3907624 -29.673394 -1.3907624
-2.8844956 -29.673394 -1.3907624
-4.3724424 -29.673394 -1.3907624
-5.860395 -29.673394 -1.3907624
-7.3483533 -29.673394 -1.3907624
-8.8362771 -29.673394 -1.3907624
-10.324258 -29.673394 -1.3907624
-11.812182 -29.673394 -1.3907624
-13.300164 -29.673394 -1.3907624
-14.788087 -29.673394 -1.3907624
-16.276069 -29.673394 -1.3907624
-17.763993 -29.673394 -1.3907624
-19.251974 -29.673394 -1.3907624
-20.739898 -29.673394 -1.3907624
-22.227879 -29.673394 -1.3907624
-23.715803 -29.673394 -1.3907624
-25.203784 -29.673394 -1.3907624
-26.691708 -29.673394 -1.3907624
-28.179689 -29.673394 -1.3907624
-29.673394 -29.673394 -1.3907624
-1.3907624 -1.3907624 -2.8844956
-2.8844956 -1.3907624 -2.8844956
-4.3724424 -1.3907624 -2.8844956
-5.860395 -1.3907624 -2.8844956
-7.3483533 -1.3907624 -2.8844956
-8.8362771 -1.3907624 -2.8844956
-10.324258 -1.3907624 -2.8844956
-11.812182 -1.3907624 -2.8844956
-13.300164 -1.3907624 -2.8844956
-14.788087 -1.3907624 -2.8844956
-16.276069 -1.3907624 -2.8844956
-17.763993 -1.3907624 -2.8844956
-19.251974 -1.3907624 -2.8844956
-20.739898 -1.3907624 -2.8844956
-22.227879 -1.3907624 -2.8844956
-23.715803 -1.3907624 -2.8844956
-25.203784 -1.3907624 -2.8844956
-26.691708 -1.3907624 -2.8844956
-28.179689 -1.3907624 -2.8844956
-29.673394 -1.3907624 -2.8844956
-1.3907624 -2.8844956 -2.8844956
-2.8844956 -2.8844956 -2.8844956
-4.3724424 -2.8844956 -2.8844956