# vtk DataFile Version 4.0
hesp visualization file
ASCII
DATASET UNSTRUCTURED_GRID
POINTS 3000 double
0.23533574 0.23533574 0.23533574
2.5255237 0.23533574 0.23533574
4.8189826 0.23533574 0.23533574
7.1124504 0.23533574 0.23533574
9.4059271 0.23533574 0.23533574
11.69935 0.23533574 0.23533574
13.992863 0.23533574 0.23533574
16.286286 0.23533574 0.23533574
18.579798 0.23533574 0.23533574
20.873222 0.23533574 0.23533574
23.166734 0.23533574 0.23533574
25.460157 0.23533574 0.23533574
27.753669 0.23533574 0.23533574
30.047093 0.23533574 0.23533574
32.340605 0.23533574 0.23533574
34.634028 0.23533574 0.23533574
36.927541 0.23533574 0.23533574
39.220964 0.23533574 0.23533574
41.514476 0.23533574 0.23533574
43.80462 0.23533574 0.23533574
0.23533574 2.5255237 0.23533574
2.5255237 2.5255237 0.23533574
4.8189826 2.5255237 0.23533574
7.1124504 2.5255237 0.23533574
9.4059271 2.5255237 0.23533574
11.69935 2.5255237 0.23533574
13.992863 2.5255237 0.23533574
16.286286 2.5255237 0.23533574
18.579798 2.5255237 0.23533574
20.873222 2.5255237 0.23533574
23.166734 2.5255237 0.23533574
25.460157 2.5255237 0.23533574
27.753669 2.5255237 0.23533574
30.047093 2.5255237 0.23533574
32.340605 2.5255237 0.23533574
34.634028 2.5255237 0.23533574
36.927541 2.5255237 0.23533574
39.220964 2.5255237 0.23533574
41.514476 2.5255237 0.23533574
43.80462 2.5255237 0.23533574
0.23533574 4.8189826 0.23533574
2.5255237 4.8189826 0.23533574
4.8189826 4.8189826 0.23533574
7.1124504 4.8189826 0.23533574
9.4059271 4.8189826 0.23533574
11.69935 4.8189826 0.23533574
13.992863 4.8189826 0.23533574
16.286286 4.8189826 0.23533574
18.579798 4.8189826 0.23533574
20.873222 4.8189826 0.23533574
23.166734 4.8189826 0.23533574
25.460157 4.8189826 0.23533574
27.753669 4.8189826 0.23533574
30.047093 4.8189826 0.23533574
32.340605 4.8189826 0.23533574
34.634028 4.8189826 0.23533574
36.927541 4.8189826 0.23533574
39.220964 4.8189826 0.23533574
41.514476 4.8189826 0.23533574
43.80462 4.8189826 0.23533574
0.23533574 7.1124504 0.23533574
2.5255237 7.1124504 0.23533574
4.8189826 7.1124504 0.23533574
7.1124504 7.1124504 0.23533574
9.4059271 7.1124504 0.23533574
11.69935 7.1124504 0.23533574
13.992863 7.1124504 0.23533574
16.286286 7.1124504 0.23533574
18.579798 7.1124504 0.23533574
20.873222 7.1124504 0.23533574
23.166734 7.1124504 0.23533574
25.460157 7.1124504 0.23533574
27.753669 7.1124504 0.23533574
30.047093 7.1124504 0.23533574
32.340605 7.1124504 0.23533574
34.634028 7.1124504 0.23533574
36.927541 7.1124504 0.23533574
39.220964 7.1124504 0.23533574
41.514476 7.1124504 0.23533574
43.80462 7.1124504 0.23533574
0.23533574 9.4059271 0.23533574
2.5255237 9.4059271 0.23533574
4.8189826 9.4059271 0.23533574
7.1124504 9.4059271 0.23533574
9.4059271 9.4059271 0.23533574
11.69935 9.4059271 0.23533574
13.992863 9.4059271 0.23533574
16.286286 9.4059271 0.23533574
18.579798 9.4059271 0.23533574
20.873222 9.4059271 0.23533574
23.166734 9.4059271 0.23533574
25.460157 9.4059271 0.23533574
27.753669 9.4059271 0.23533574
30.047093 9.4059271 0.23533574
32.340605 9.4059271 0.23533574
34.634028 9.4059271 0.23533574
36.927541 9.4059271 0.23533574
39.220964 9.4059271 0.23533574
41.514476 9.4059271 0.23533574
43.80462 9.4059271 0.23533574
0.23533574 11.69935 0.23533574
2.5255237 11.69935 0.23533574
4.8189826 11.69935 0.23533574
7.1124504 11.69935 0.23533574
9.4059271 11.69935 0.23533574
11.69935 11.69935 0.23533574
13.992863 11.69935 0.23533574
16.286286 11.69935 0.23533574
18.579798 11.69935 0.23533574
20.873222 11.69935 0.23533574
23.166734 11.69935 0.23533574
25.460157 11.69935 0.23533574
27.753669 11.69935 0.23533574
30.047093 11.69935 0.23533574
32.340605 11.69935 0.23533574
34.634028 11.69935 0.23533574
36.927541 11.69935 0.23533574
39.220964 11.69935 0.23533574
41.514476 11.69935 0.23533574
43.80462 11.69935 0.23533574
0.23533574 13.992863 0.23533574
2.5255237 13.992863 0.23533574
4.8189826 13.992863 0.23533574
7.1124504 13.992863 0.23533574
9.4059271 13.992863 0.23533574
11.69935 13.992863 0.23533574
13.992863 13.992863 0.23533574
16.286286 13.992863 0.23533574
18.579798 13.992863 0.23533574
20.873222 13.992863 0.23533574
23.166734 13.992863 0.23533574
25.460157 13.992863 0.23533574
27.753669 13.992863 0.23533574
30.047093 13.992863 0.23533574
32.340605 13.992863 0.23533574
34.634028 13.992863 0.23533574
36.927541 13.992863 0.23533574
39.220964 13.992863 0.23533574
41.514476 13.992863 0.23533574
43.80462 13.992863 0.23533574
0.23533574 16.286286 0.23533574
2.5255237 16.286286 0.23533574
4.8189826 16.286286 0.23533574
7.1124504 16.286286 0.23533574
9.4059271 16.286286 0.23533574
11.69935 16.286286 0.23533574
13.992863 16.286286 0.23533574
16.286286 16.286286 0.23533574
18.579798 16.286286 0.23533574
20.873222 16.286286 0.23533574
23.166734 16.286286 0.23533574
25.460157 16.286286 0.23533574
27.753669 16.286286 0.23533574
30.047093 16.286286 0.23533574
32.340605 16.286286 0.23533574
34.634028 16.286286 0.23533574
36.927541 16.286286 0.23533574
39.220964 16.286286 0.23533574
41.514476 16.286286 0.23533574
43.80462 16.286286 0.23533574
0.23533574 18.579798 0.23533574
2.5255237 18.579798 0.23533574
4.8189826 18.579798 0.23533574
7.1124504 18.579798 0.23533574
9.4059271 18.579798 0.23533574
11.69935 18.579798 0.23533574
13.992863 18.579798 0.23533574
16.286286 18.579798 0.23533574
18.579798 18.579798 0.23533574
20.873222 18.579798 0.23533574
23.166734 18.579798 0.23533574
25.460157 18.579798 0.23533574
27.753669 18.579798 0.23533574
30.047093 18.579798 0.23533574
32.340605 18.579798 0.23533574
34.634028 18.579798 0.23533574
36.927541 18.579798 0.23533574
39.220964 18.579798 0.23533574
41.514476 18.579798 0.23533574
43.80462 18.579798 0.23533574
0.23533574 20.873222 0.23533574
2.5255237 20.873222 0.23533574
4.8189826 20.873222 0.23533574
7.1124504 20.873222 0.23533574
9.4059271 20.873222 0.23533574
11.69935 20.873222 0.23533574
13.992863 20.873222 0.23533574
16.286286 20.873222 0.23533574
18.579798 20.873222 0.23533574
20.873222 20.873222 0.23533574
23.166734 20.873222 0.23533574
25.460157 20.873222 0.23533574
27.753669 20.873222 0.23533574
30.047093 20.873222 0.23533574
32.340605 20.873222 0.23533574
34.634028 20.873222 0.23533574
36.927541 20.873222 0.23533574
39.220964 20.873222 0.23533574
41.514476 20.873222 0.23533574
43.80462 20.873222 0.23533574
0.23533574 23.166734 0.23533574
2.5255237 23.166734 0.23533574
4.8189826 23.166734 0.23533574
7.1124504 23.166734 0.23533574
9.4059271 23.166734 0.23533574
11.69935 23.166734 0.23533574
13.992863 23.166734 0.23533574
16.286286 23.166734 0.23533574
18.579798 23.166734 0.23533574
20.873222 23.166734 0.23533574
23.166734 23.166734 0.23533574
25.460157 23.166734 0.23533574
27.753669 23.166734 0.23533574
30.047093 23.166734 0.23533574
32.340605 23.166734 0.23533574
34.634028 23.166734 0.23533574
36.927541 23.166734 0.23533574
39.220964 23.166734 0.23533574
41.514476 23.166734 0.23533574
43.80462 23.166734 0.23533574
0.23533574 25.460157 0.23533574
2.5255237 25.460157 0.23533574
4.8189826 25.460157 0.23533574
7.1124504 25.460157 0.23533574
9.4059271 25.460157 0.23533574
11.69935 25.460157 0.23533574
13.992863 25.460157 0.23533574
16.286286 25.460157 0.23533574
18.579798 25.460157 0.23533574
20.873222 25.460157 0.23533574
23.166734 25.460157 0.23533574
25.460157 25.460157 0.23533574
27.753669 25.460157 0.23533574
30.047093 25.460157 0.23533574
32.340605 25.460157 0.23533574
34.634028 25.460157 0.23533574
36.927541 25.460157 0.23533574
39.220964 25.460157 0.23533574
41.514476 25.460157 0.23533574
43.80462 25.460157 0.23533574
0.23533574 27.753669 0.23533574
2.5255237 27.753669 0.23533574
4.8189826 27.753669 0.23533574
7.1124504 27.753669 0.23533574
9.4059271 27.753669 0.23533574
11.69935 27.753669 0.23533574
13.992863 27.753669 0.23533574
16.286286 27.753669 0.23533574
18.579798 27.753669 0.23533574
20.873222 27.753669 0.23533574
23.166734 27.753669 0.23533574
25.460157 27.753669 0.23533574
27.753669 27.753669 0.23533574
30.047093 27.753669 0.23533574
32.340605 27.753669 0.23533574
34.634028 27.753669 0.23533574
36.927541 27.753669 0.23533574
39.220964 27.753669 0.23533574
41.514476 27.753669 0.23533574
43.80462 27.753669 0.23533574
0.23533574 30.047093 0.23533574
2.5255237 30.047093 0.23533574
4.8189826 30.047093 0.23533574
7.1124504 30.047093 0.23533574
9.4059271 30.047093 0.23533574
11.69935 30.047093 0.23533574
13.992863 30.047093 0.23533574
16.286286 30.047093 0.23533574
18.579798 30.047093 0.23533574
20.873222 30.047093 0.23533574
23.166734 30.047093 0.23533574
25.460157 30.047093 0.23533574
27.753669 30.047093 0.23533574
30.047093 30.047093 0.23533574
32.340605 30.047093 0.23533574
34.634028 30.047093 0.23533574
36.927541 30.047093 0.23533574
39.220964 30.047093 0.23533574
41.514476 30.047093 0.23533574
43.80462 30.047093 0.23533574
0.23533574 32.340605 0.23533574
2.5255237 32.340605 0.23533574
4.8189826 32.340605 0.23533574
7.1124504 32.340605 0.23533574
9.4059271 32.340605 0.23533574
11.69935 32.340605 0.23533574
13.992863 32.340605 0.23533574
16.286286 32.340605 0.23533574
18.579798 32.340605 0.23533574
20.873222 32.340605 0.23533574
23.166734 32.340605 0.23533574
25.460157 32.340605 0.23533574
27.753669 32.340605 0.23533574
30.047093 32.340605 0.23533574
32.340605 32.340605 0.23533574
34.634028 32.340605 0.23533574
36.927541 32.340605 0.23533574
39.220964 32.340605 0.23533574
41.514476 32.340605 0.23533574
43.80462 32.340605 0.23533574
0.23533574 34.634028 0.23533574
2.5255237 34.634028 0.23533574
4.8189826 34.634028 0.23533574
7.1124504 34.634028 0.23533574
9.4059271 34.634028 0.23533574
11.69935 34.634028 0.23533574
13.992863 34.634028 0.23533574
16.286286 34.634028 0.23533574
18.579798 34.634028 0.23533574
20.873222 34.634028 0.23533574
23.166734 34.634028 0.23533574
25.460157 34.634028 0.23533574
27.753669 34.634028 0.23533574
30.047093 34.634028 0.23533574
32.340605 34.634028 0.23533574
34.634028 34.634028 0.23533574
36.927541 34.634028 0.23533574
39.220964 34.634028 0.23533574
41.514476 34.634028 0.23533574
[...]
POINT_DATA 3000
SCALARS m double
LOOKUP_TABLE default
1
1
1
1
1
1
1
1
1
1
1
1
1
1
1
1
1
1
1
1
1
1
1
1
1
1
1
1
1
1
1
1
1
1
1
1
1
1
1
1
1
1
1
1
1
1
1
1
1
1
1
1
1
1
1
1
1
1
1
1
1
1
1
1
1
1
1
1
1
1
1
1
1
1
1
1
1
1
1
1
1
1
1
1
1
1
1
1
1
1
1
1
1
1
1
1
1
1
1
1
1
1
1
1
1
1
1
1
1
1
1
1
1
1
1
1
1
1
1
1
1
1
1
1
1
1
1
1
1
1
1
1
1
1
1
1
1
1
1
1
1
1
1
1
1
1
1
1
1
1
1
1
1
1
1
1
1
1
1
1
1
1
1
1
1
1
1
1
1
1
1
1
1
1
1
1
1
1
1
1
1
1
1
1
1
1
1
1
1
1
1
1
1
1
1
1
1
1
1
1
1
1
1
1
1
1
1
1
1
1
1
1
1
1
1
1
1
1
1
1
1
1
1
1
1
1
1
1
1
1
1
1
1
1
1
1
1
1
1
1
1
1
1
1
1
1
1
1
1
1
1
1
1
1
1
1
1
1
1
1
1
1
1
1
1
1
1
1
1
1
1
1
1
1
1
1
1
1
1
1
1
1
1
1
1
1
1
1
1
1
1
1
1
1
1
1
1
1
1
1
1
1
1
1
1
1
1
1
1
1
1
1
1
1
1
1
1
1
1
1
1
1
1
1
1
1
1
1
1
1
1
1
1
1
1
1
1
1
1
1
1
1
1
1
1
1
1
1
1
1
1
1
1
1
1
1
1
1
1
1
1
1
1
1
1
1
1
1
1
1
1
1
1
1
1
1
1
1
1
1
1
1
1
1
1
1
1
1
1
1
1
1
1
1
1
1
1
1
1
1
1
1
1
1
1
1
1
1
1
1
1
1
1
1
1
1
1
1
1
1
1
1
1
1
1
1
1
1
1
1
1
1
1
1
1
1
1
1
1
1
1
1
1
1
1
1
1
1
1
1
1
1
1
1
1
1
1
1
1
1
1
1
1
1
1
1
1
1
1
1
1
1
1
1
1
1
1
1
1
1
1
1
1
1
1
1
1
1
1
1
1
1
1
1
1
1
1
1
1
1
1
1
1
1
1
1
1
1
1
1
1
1
1
1
1
1
1
1
1
1
1
1
1
1
1
1
1
1
1
1
1
1
1
1
1
1
1
1
1
1
1
1
1
1
1
1
1
1
1
1
1
1
1
1
1
1
1
1
1
1
1
1
1
1
1
1
1
1
1
1
1
1
1
1
1
1
1
1
1
1
1
1
1
1
1
1
1
1
1
1
1
1
1
1
1
1
1
1
1
1
1
1
1
1
1
1
1
1
1
1
1
1
1
1
1
1
1
1
1
1
1
1
1
1
1
1
1
1
1
1
1
1
1
1
1
1
1
1
1
1
1
1
1
1
1
1
1
1
1
1
1
1
1
1
1
1
1
1
1
1
1
1
1
1
1
1
1
1
1
1
1
1
1
1
1
1
1
1
1
1
1
1
1
1
1
1
1
1
1
1
1
1
1
1
1
1
1
1
1
1
1
1
1
1
1
1
1
1
1
1
1
1
1
1
1
1
1
1
1
1
1
1
1
1
1
1
1
1
1
1
1
1
1
1
1
1
1
1
1
1
1
1
1
1
1
1
1
1
1
1
1
1
1
1
1
1
1
1
1
1
1
1
1
1
1
1
1
1
1
1
1
1
1
1
1
1
1
1
1
1
1
1
1
1
1
1
1
1
1
1
1
1
1
1
1
1
1
1
1
1
1
1
1
1
1
1
1
1
1
1
1
1
1
1
1
1
1
1
1
1
1
1
1
1
1
1
1
1
1
1
1
1
1
1
1
1
1
1
1
1
1
1
1
1
1
1
1
1
1
1
1
1
1
1
1
1
1
1
1
1
1
1
1
1
1
1
1
1
1
1
1
1
1
1
1
1
1
1
1
1
1
1
1
1
1
1
1
1
1
1
1
1
1
1
1
1
1
1
1
1
1
1
1
1
1
1
1
1
1
1
1
1
1
1
1
1
1
1
1
1
1
1
1
1
1
1
1
1
1
1
1
1
1
1
1
1
1
1
1
1
1
1
1
1
1
1
1
1
1
1
1
1
1
1
1
1
1
1
1
1
1
1
1
1
1
1
1
1
1
1
1
1
1
1
1
1
1
1
1
1
1
1
1
1
1
1
1
1
1
1
1
1
1
1
1
1
1
1
1
1
1
1
1
1
1
1
1
1
1
1
1
1
1
1
1
1
1
1
1
1
1
1
1
1
1
1
1
1
1
1
1
1
1
1
1
1
1
1
1
1
1
1
1
1
1
1
1
1
1
1
1
1
1
1
1
1
1
1
1
1
1
1
1
1
1
1
1
1
1
1
1
1
1
1
1
1
1
1
1
1
1
1
1
1
1
1
1
1
1
1
1
1
1
1
1
1
1
1
1
1
1
1
1
1
1
1
1
1
1
1
1
1
1
1
1
1
1
1
1
1
1
1
1
1
1
1
1
1
1
1
1
1
1
1
1
1
1
1
1
1
1
1
1
1
1
1
1
1
1
1
1
1
1
1
1
1
1
1
1
1
1
1
1
1
1
1
1
1
1
1
1
1
1
1
1
1
1
1
1
1
1
1
1
1
1
1
1
1
1
1
1
1
1
1
1
1
1
1
1
1
1
1
1
1
1
1
1
1
1
1
1
1
1
1
1
1
1
1
1
1
1
1
1
1
1
1
1
1
1
1
1
1
1
1
1
1
1
1
1
1
1
1
1
1
1
1
1
1
1
1
1
1
1
1
1
1
1
1
1
1
1
1
1
1
1
1
1
1
1
1
1
1
1
1
1
1
1
1
1
1
1
1
1
1
1
1
1
1
1
1
1
1
1
1
1
1
1
1
1
1
1
1
1
1
1
1
1
1
1
1
1
1
1
1
1
1
1
1
1
1
1
1
1
1
1
1
1
1
1
1
1
1
1
1
1
1
1
1
1
1
1
1
1
1
1
1
1
1
1
1
1
1
1
1
1
1
1
1
1
1
1
1
1
1
1
1
1
1
1
1
1
1
1
1
1
1
1
1
1
1
1
1
1
1
1
1
1
1
1
1
1
1
1
1
1
1
1
1
1
1
1
1
1
1
1
1
1
1
1
1
1
1
1
1
1
1
1
1
1
1
1
1
1
1
1
1
1
1
1
1
1
1
1
1
1
1
1
1
1
1
1
1
1
1
1
1
1
1
1
1
1
1
1
1
1
1
1
1
1
1
1
1
1
1
1
1
1
1
1
1
1
1
1
1
1
1
1
1
1
1
1
1
1
1
1
1
1
1
1
1
1
1
1
1
1
1
1
1
1
1
1
1
1
1
1
1
1
1
1
1
1
1
1
1
1
1
1
1
1
1
1
1
1
1
1
1
1
1
1
1
1
1
1
1
1
1
1
1
1
1
1
1
1
1
1
1
1
1
1
1
1
1
1
1
1
1
1
1
1
1
1
1
1
1
1
1
1
1
1
1
1
1
1
1
1
1
1
1
1
1
1
1
1
1
1
1
1
1
1
1
1
1
1
1
1
1
1
1
1
1
1
1
1
1
1
1
1
1
1
1
1
1
1
1
1
1
1
1
1
1
1
1
1
1
1
1
1
1
1
1
1
1
1
1
1
1
1
1
1
1
1
1
1
1
1
1
1
1
1
1
1
1
1
1
1
1
1
1
1
1
1
1
1
1
1
1
1
1
1
1
1
1
1
1
1
1
1
1
1
1
1
1
1
1
1
1
1
1
1
1
1
1
1
1
1
1
1
1
1
1
1
1
1
1
1
1
1
1
1
1
1
1
1
1
1
1
1
1
1
1
1
1
1
1
1
1
1
1
1
1
1
1
1
1
1
1
1
1
1
1
1
1
1
1
1
1
1
1
1
1
1
1
1
1
1
1
1
1
1
1
1
1
1
1
1
1
1
1
1
1
1
1
1
1
1
1
1
1
1
1
1
1
1
1
1
1
1
1
1
1
1
1
1
1
1
1
1
1
1
1
1
1
1
1
1
1
1
1
1
1
1
1
1
1
1
1
1
1
1
1
1
1
1
1
1
1
1
1
1
1
1
1
1
1
1
1
1
1
1
1
1
1
1
1
1
1
1
1
1
1
1
1
1
1
1
1
1
1
1
1
1
1
1
1
1
1
1
1
1
1
1
1
1
1
1
1
1
1
1
1
1
1
1
1
1
1
1
1
1
1
1
1
1
1
1
1
1
1
1
1
1
1
1
1
1
1
1
1
1
1
1
1
1
1
1
1
1
1
1
1
1
1
1
1
1
1
1
1
1
1
1
1
1
1
1
1
1
1
1
1
1
1
1
1
1
1
1
1
1
1
1
1
1
1
1
1
1
1
1
1
1
1
1
1
1
1
1
1
1
1
1
1
1
1
1
1
1
1
1
1
1
1
1
1
1
1
1
1
1
1
1
1
1
1
1
1
1
1
1
1
1
1
1
1
1
1
1
1
1
1
1
1
1
1
1
1
1
1
1
1
1
1
1
1
1
1
1
1
1
1
1
1
1
1
1
1
1
1
1
1
1
1
1
1
1
1
1
1
1
1
1
1
1
1
1
1
1
1
1
1
1
1
1
1
1
1
1
1
1
1
1
1
1
1
1
1
1
1
1
1
1
1
1
1
1
1
1
1
1
1
1
1
1
1
1
1
1
1
1
1
1
1
1
1
1
1
1
1
1
1
1
1
1
1
1
1
1
1
1
1
1
1
1
1
1
1
1
1
1
1
1
1
1
1
1
1
1
1
1
1
1
1
1
1
1
1
1
1
1
1
1
1
1
1
1
1
1
1
1
1
1
1
1
1
1
1
1
1
1
1
1
1
1
1
1
1
1
1
1
1
1
1
1
1
1
1
1
1
1
1
1
1
1
1
1
1
1
1
1
1
1
1
1
1
1
1
1
1
1
1
1
1
1
1
1
1
1
1
1
1
1
1
1
1
1
1
1
1
1
1
1
1
1
1
1
1
1
1
1
1
1
1
1
1
1
1
1
1
1
1
1
1
1
1
1
1
1
1
1
1
1
1
1
1
1
1
1
1
1
1
1
1
1
1
1
1
1
1
1
1
1
1
1
1
1
1
1
1
1
1
1
1
1
1
1
1
1
1
1
1
1
1
1
1
1
1
1
1
1
1
1
1
1
1
1
1
1
1
1
1
1
1
1
1
1
1
1
1
1
1
1
1
1
1
1
1
1
1
1
1
1
1
1
1
1
1
1
1
1
1
1
1
1
1
1
1
1
1
1
1
1
1
1
1
1
1
1
1
1
1
1
1
1
1
1
1
1
1
1
1
1
1
1
1
1
1
1
1
1
1
1
1
1
1
1
1
1
1
1
1
1
1
1
1
1
1
1
1
1
1
1
1
1
1
1
1
1
1
1
1
1
1
1
1
1
1
1
1
1
1
1
1
1
1
1
1
1
1
1
1
1
1
1
1
1
1
1
1
1
1
1
1
1
1
1
1
1
1
1
1
1
1
1
1
1
1
1
1
1
1
1
1
1
1
1
1
1
1
1
1
1
1
1
1
1
1
1
1
1
1
1
1
1
1
1
1
1
1
1
1
1
1
1
1
1
1
1
1
1
1
1
1
1
1
1
1
1
1
1
1
1
1
1
1
1
1
1
1
1
1
1
1
1
1
1
1
1
1
1
1
1
1
1
1
1
1
1
1
1
1
1
1
1
1
1
1
1
1
1
1
1
1
1
1
1
1
1
1
1
1
1
1
1
1
1
1
1
1
1
1
1
1
1
1
1
1
1
1
1
1
1
1
1
1
1
1
1
1
1
1
1
1
1
1
1
1
1
1
1
1
1
1
1
1
1
1
1
1
1
1
1
1
1
1
1
1
1
1
1
1
1
1
1
1
1
1
1
1
1
1
1
1
1
1
1
1
1
1
1
1
1
1
1
1
1
1
1
1
1
1
1
1
1
1
1
1
1
1
1
1
1
1
1
1
1
1
1
1
1
1
1
1
1
1
1
1
1
1
1
1
1
1
1
1
1
1
1
1
1
1
1
1
1
1
1
1
1
1
1
1
1
1
1
1
1
1
1
1
1
1
1
1
1
1
1
1
1
1
1
1
1
1
1
1
1
1
1
1
1
1
1
1
1
1
1
1
1
1
1
1
1
1
1
1
1
1
1
1
1
1
1
1
1
1
1
1
1
1
1
1
1
1
1
1
1
1
1
1
1
1
1
1
1
1
1
1
1
1
1
1
1
1
1
1
1
1
1
1
1
1
1
1
1
1
1
1
1
1
1
1
1
1
1
1
1
1
1
1
1
1
1
1
1
1
1
1
1
1
1
1
1
1
1
1
1
1
1
1
1
1
1
1
1
1
1
1
1
1
1
1
1
1
1
1
1
1
1
1
1
1
1
1
1
1
1
1
1
1
1
1
1
1
1
1
1
1
1
1
1
1
1
1
1
1
1
1
1
1
1
1
1
1
1
1
1
1
1
1
1
1
1
1
1
1
1
1
1
1
1
1
1
1
1
1
1
1
1
1
1
1
1
1
1
1
1
1
1
1
1
1
1
1
1
1
1
1
1
1
1
1
1
1
1
1
1
1
1
1
1
1
1
1
1
1
1
1
1
1
1
1
1
1
1
1
1
1
1
1
1
1
1
1
1
1
1
1
1
1
1
1
1
1
1
1
1
1
1
1
1
1
1
1
1
1
1
1
1
1
1
1
VECTORS v double
-1.1006998 -1.1006998 -1.1006998
-2.2864573 -1.1006998 -1.1006998
-3.4659103 -1.1006998 -1.1006998
-4.6453678 -1.1006998 -1.1006998
-5.8248299 -1.1006998 -1.1006998
-7.0042646 -1.1006998 -1.1006998
-8.183745 -1.1006998 -1.1006998
-9.3631796 -1.1006998 -1.1006998
-10.54266 -1.1006998 -1.1006998
-11.722095 -1.1006998 -1.1006998
-12.901575 -1.1006998 -1.1006998
-14.08101 -1.1006998 -1.1006998
-15.26049 -1.1006998 -1.1006998
-16.439925 -1.1006998 -1.1006998
-17.619405 -1.1006998 -1.1006998
-18.79884 -1.1006998 -1.1006998
-19.97832 -1.1006998 -1.1006998
-21.157755 -1.1006998 -1.1006998
-22.337235 -1.1006998 -1.1006998
-23.52297 -1.1006998 -1.1006998
-1.1006998 -2.2864573 -1.1006998
-2.2864573 -2.2864573 -1.1006998
-3.4659103 -2.2864573 -1.1006998
-4.6453678 -2.2864573 -1.1006998
-5.8248299 -2.2864573 -1.1006998
-7.0042646 -2.2864573 -1.1006998
-8.183745 -2.2864573 -1.1006998
-9.3631796 -2.2864573 -1.1006998
-10.54266 -2.2864573 -1.1006998
-11.722095 -2.2864573 -1.1006998
-12.901575 -2.2864573 -1.1006998
-14.08101 -2.2864573 -1.1006998
-15.26049 -2.2864573 -1.1006998
-16.439925 -2.2864573 -1.1006998
-17.619405 -2.2864573 -1.1006998
-18.79884 -2.2864573 -1.1006998
-19.97832 -2.2864573 -1.1006998
-21.157755 -2.2864573 -1.1006998
-22.337235 -2.2864573 -1.1006998
-23.52297 -2.2864573 -1.1006998
-1.1006998 -3.4659103 -1.1006998
-2.2864573 -3.4659103 -1.1006998
-3.4659103 -3.4659103 -1.1006998
-4.6453678 -3.4659103 -1.1006998
-5.8248299 -3.4659103 -1.1006998
-7.0042646 -3.4659103 -1.1006998
-8.183745 -3.4659103 -1.1006998
-9.3631796 -3.4659103 -1.1006998
-10.54266 -3.4659103 -1.1006998
-11.722095 -3.4659103 -1.1006998
-12.901575 -3.4659103 -1.1006998
-14.08101 -3.4659103 -1.1006998
-15.26049 -3.4659103 -1.1006998
-16.439925 -3.4659103 -1.1006998
-17.619405 -3.4659103 -1.1006998
-18.79884 -3.4659103 -1.1006998
-19.97832 -3.4659103 -1.1006998
-21.157755 -3.4659103 -1.1006998
-22.337235 -3.4659103 -1.1006998
-23.52297 -3.4659103 -1.1006998
-1.1006998 -4.6453678 -1.1006998
-2.2864573 -4.6453678 -1.1006998
-3.4659103 -4.6453678 -1.1006998
-4.6453678 -4.6453678 -1.1006998
-5.8248299 -4.6453678 -1.1006998
-7.0042646 -4.6453678 -1.1006998
-8.183745 -4.6453678 -1.1006998
-9.3631796 -4.6453678 -1.1006998
-10.54266 -4.6453678 -1.1006998
-11.722095 -4.6453678 -1.1006998
-12.901575 -4.6453678 -1.1006998
-14.08101 -4.6453678 -1.1006998
-15.26049 -4.6453678 -1.1006998
-16.439925 -4.6453678 -1.1006998
-17.619405 -4.6453678 -1.1006998
-18.79884 -4.6453678 -1.1006998
-19.97832 -4.6453678 -1.1006998
-21.157755 -4.6453678 -1.1006998
-22.337235 -4.6453678 -1.1006998
-23.52297 -4.6453678 -1.1006998
-1.1006998 -5.8248299 -1.1006998
-2.2864573 -5.8248299 -1.1006998
-3.4659103 -5.8248299 -1.1006998
-4.6453678 -5.8248299 -1.1006998
-5.8248299 -5.8248299 -1.1006998
-7.0042646 -5.8248299 -1.1006998
-8.183745 -5.8248299 -1.1006998
-9.3631796 -5.8248299 -1.1006998
-10.54266 -5.8248299 -1.1006998
-11.722095 -5.8248299 -1.1006998
-12.901575 -5.8248299 -1.1006998
-14.08101 -5.8248299 -1.1006998
-15.26049 -5.8248299 -1.1006998
-16.439925 -5.8248299 -1.1006998
-17.619405 -5.8248299 -1.1006998
-18.79884 -5.8248299 -1.1006998
-19.97832 -5.8248299 -1.1006998
-21.157755 -5.8248299 -1.1006998
-22.337235 -5.8248299 -1.1006998
-23.52297 -5.8248299 -1.1006998
-1.1006998 -7.0042646 -1.1006998
-2.2864573 -7.0042646 -1.1006998
-3.4659103 -7.0042646 -1.1006998
-4.6453678 -7.0042646 -1.1006998
-5.8248299 -7.0042646 -1.1006998
-7.0042646 -7.0042646 -1.1006998
-8.183745 -7.0042646 -1.1006998
-9.3631796 -7.0042646 -1.1006998
-10.54266 -7.0042646 -1.1006998
-11.722095 -7.0042646 -1.1006998
-12.901575 -7.0042646 -1.1006998
-14.08101 -7.0042646 -1.1006998
-15.26049 -7.0042646 -1.1006998
-16.439925 -7.0042646 -1.1006998
-17.619405 -7.0042646 -1.1006998
-18.79884 -7.0042646 -1.1006998
-19.97832 -7.0042646 -1.1006998
-21.157755 -7.0042646 -1.1006998
-22.337235 -7.0042646 -1.1006998
-23.52297 -7.0042646 -1.1006998
-1.1006998 -8.183745 -1.1006998
-2.2864573 -8.183745 -1.1006998
-3.4659103 -8.183745 -1.1006998
-4.6453678 -8.183745 -1.1006998
-5.8248299 -8.183745 -1.1006998
-7.0042646 -8.183745 -1.1006998
-8.183745 -8.183745 -1.1006998
-9.3631796 -8.183745 -1.1006998
-10.54266 -8.183745 -1.1006998
-11.722095 -8.183745 -1.1006998
-12.901575 -8.183745 -1.1006998
-14.08101 -8.183745 -1.1006998
-15.26049 -8.183745 -1.1006998
-16.439925 -8.183745 -1.1006998
-17.619405 -8.183745 -1.1006998
-18.79884 -8.183745 -1.1006998
-19.97832 -8.183745 -1.1006998
-21.157755 -8.183745 -1.1006998
-22.337235 -8.183745 -1.1006998
-23.52297 -8.183745 -1.1006998
-1.1006998 -9.3631796 -1.1006998
-2.2864573 -9.3631796 -1.1006998
-3.4659103 -9.3631796 -1.1006998
-4.6453678 -9.3631796 -1.1006998
-5.8248299 -9.3631796 -1.1006998
-7.0042646 -9.3631796 -1.1006998
-8.183745 -9.3631796 -1.1006998
-9.3631796 -9.3631796 -1.1006998
-10.54266 -9.3631796 -1.1006998
-11.722095 -9.3631796 -1.1006998
-12.901575 -9.3631796 -1.1006998
-14.08101 -9.3631796 -1.1006998
-15.26049 -9.3631796 -1.1006998
-16.439925 -9.3631796 -1.1006998
-17.619405 -9.3631796 -1.1006998
-18.79884 -9.3631796 -1.1006998
-19.97832 -9.3631796 -1.1006998
-21.157755 -9.3631796 -1.1006998
-22.337235 -9.3631796 -1.1006998
-23.52297 -9.3631796 -1.1006998
-1.1006998 -10.54266 -1.1006998
-2.2864573 -10.54266 -1.1006998
-3.4659103 -10.54266 -1.1006998
-4.6453678 -10.54266 -1.1006998
-5.8248299 -10.54266 -1.1006998
-7.0042646 -10.54266 -1.1006998
-8.183745 -10.54266 -1.1006998
-9.3631796 -10.54266 -1.1006998
-10.54266 -10.54266 -1.1006998
-11.722095 -10.54266 -1.1006998
-12.901575 -10.54266 -1.1006998
-14.08101 -10.54266 -1.1006998
-15.26049 -10.54266 -1.1006998
-16.439925 -10.54266 -1.1006998
-17.619405 -10.54266 -1.1006998
-18.79884 -10.54266 -1.1006998
-19.97832 -10.54266 -1.1006998
-21.157755 -10.54266 -1.1006998
-22.337235 -10.54266 -1.1006998
-23.52297 -10.54266 -1.1006998
-1.1006998 -11.722095 -1.1006998
-2.2864573 -11.722095 -1.1006998
-3.4659103 -11.722095 -1.1006998
-4.6453678 -11.722095 -1.1006998
-5.8248299 -11.722095 -1.1006998
-7.0042646 -11.722095 -1.1006998
-8.183745 -11.722095 -1.1006998
-9.3631796 -11.722095 -1.1006998
-10.54266 -11.722095 -1.1006998
-11.722095 -11.722095 -1.1006998
-12.901575 -11.722095 -1.1006998
-14.08101 -11.722095 -1.1006998
-15.26049 -11.722095 -1.1006998
-16.439925 -11.722095 -1.1006998
-17.619405 -11.722095 -1.1006998
-18.79884 -11.722095 -1.1006998
-19.97832 -11.722095 -1.1006998
-21.157755 -11.722095 -1.1006998
-22.337235 -11.722095 -1.1006998
-23.52297 -11.722095 -1.1006998
-1.1006998 -12.901575 -1.1006998
-2.2864573 -12.901575 -1.1006998
-3.4659103 -12.901575 -1.1006998
-4.6453678 -12.901575 -1.1006998
-5.8248299 -12.901575 -1.1006998
-7.0042646 -12.901575 -1.1006998
-8.183745 -12.901575 -1.1006998
-9.3631796 -12.901575 -1.1006998
-10.54266 -12.901575 -1.1006998
-11.722095 -12.901575 -1.1006998
-12.901575 -12.901575 -1.1006998
-14.08101 -12.901575 -1.1006998
-15.26049 -12.901575 -1.1006998
-16.439925 -12.901575 -1.1006998
-17.619405 -12.901575 -1.1006998
-18.79884 -12.901575 -1.1006998
-19.97832 -12.901575 -1.1006998
-21.157755 -12.901575 -1.1006998
-22.337235 -12.901575 -1.1006998
-23.52297 -12.901575 -1.1006998
-1.1006998 -14.08101 -1.1006998
-2.2864573 -14.08101 -1.1006998
-3.4659103 -14.08101 -1.1006998
-4.6453678 -14.08101 -1.1006998
-5.8248299 -14.08101 -1.1006998
-7.0042646 -14.08101 -1.1006998
-8.183745 -14.08101 -1.1006998
-9.3631796 -14.08101 -1.1006998
-10.54266 -14.08101 -1.1006998
-11.722095 -14.08101 -1.1006998
-12.901575 -14.08101 -1.1006998
-14.08101 -14.08101 -1.1006998
-15.26049 -14.08101 -1.1006998
-16.439925 -14.08101 -1.1006998
-17.619405 -14.08101 -1.1006998
-18.79884 -14.08101 -1.1006998
-19.97832 -14.08101 -1.1006998
-21.157755 -14.08101 -1.1006998
-22.337235 -14.08101 -1.1006998
-23.52297 -14.08101 -1.1006998
-1.1006998 -15.26049 -1.1006998
-2.2864573 -15.26049 -1.1006998
-3.4659103 -15.26049 -1.1006998
-4.6453678 -15.26049 -1.1006998
-5.8248299 -15.26049 -1.1006998
-7.0042646 -15.26049 -1.1006998
-8.183745 -15.26049 -1.1006998
-9.3631796 -15.26049 -1.1006998
-10.54266 -15.26049 -1.1006998
-11.722095 -15.26049 -1.1006998
-12.901575 -15.26049 -1.1006998
-14.08101 -15.26049 -1.1006998
-15.26049 -15.26049 -1.1006998
-16.439925 -15.26049 -1.1006998
-17.619405 -15.26049 -1.1006998
-18.79884 -15.26049 -1.1006998
-19.97832 -15.26049 -1.1006998
-21.157755 -15.26049 -1.1006998
-22.337235 -15.26049 -1.1006998
-23.52297 -15.26049 -1.1006998
-1.1006998 -16.439925 -1.1006998
-2.2864573 -16.439925 -1.1006998
-3.4659103 -16.439925 -1.1006998
-4.6453678 -16.439925 -1.1006998
-5.8248299 -16.439925 -1.1006998
-7.0042646 -16.439925 -1.1006998
-8.183745 -16.439925 -1.1006998
-9.3631796 -16.439925 -1.1006998
-10.54266 -16.439925 -1.1006998
-11.722095 -16.439925 -1.1006998
-12.901575 -16.439925 -1.1006998
-14.08101 -16.439925 -1.1006998
-15.26049 -16.439925 -1.1006998
-16.439925 -16.439925 -1.1006998
-17.619405 -16.439925 -1.1006998
-18.79884 -16.439925 -1.1006998
-19.97832 -16.439925 -1.1006998
-21.157755 -16.439925 -1.1006998
-22.337235 -16.439925 -1.1006998
-23.52297 -16.439925 -1.1006998
-1.1006998 -17.619405 -1.1006998
-2.2864573 -17.619405 -1.1006998
-3.4659103 -17.619405 -1.1006998
-4.6453678 -17.619405 -1.1006998
-5.8248299 -17.619405 -1.1006998
-7.0042646 -17.619405 -1.1006998
-8.183745 -17.619405 -1.1006998
-9.3631796 -17.619405 -1.1006998
-10.54266 -17.619405 -1.1006998
-11.722095 -17.619405 -1.1006998
-12.901575 -17.619405 -1.1006998
-14.08101 -17.619405 -1.1006998
-15.26049 -17.619405 -1.1006998
-16.439925 -17.619405 -1.1006998
-17.619405 -17.619405 -1.1006998
-18.79884 -17.619405 -1.1006998
-19.97832 -17.619405 -1.1006998
-21.157755 -17.619405 -1.1006998
-22.337235 -17.619405 -1.1006998
-23.52297 -17.619405 -1.1006998
-1.1006998 -18.79884 -1.1006998
-2.2864573 -18.79884 -1.1006998
-3.4659103 -18.79884 -1.1006998
-4.6453678 -18.79884 -1.1006998
-5.8248299 -18.79884 -1.1006998
-7.0042646 -18.79884 -1.1006998
-8.183745 -18.79884 -1.1006998
-9.3631796 -18.79884 -1.1006998
-10.54266 -18.79884 -1.1006998
-11.722095 -18.79884 -1.1006998
-12.901575 -18.79884 -1.1006998
-14.08101 -18.79884 -1.1006998
-15.26049 -18.79884 -1.1006998
-16.439925 -18.79884 -1.1006998
-17.619405 -18.79884 -1.1006998
-18.79884 -18.79884 -1.1006998
-19.97832 -18.79884 -1.1006998
-21.157755 -18.79884 -1.1006998
-22.337235 -18.79884 -1.1006998
-23.52297 -18.79884 -1.1006998
-1.1006998 -19.97832 -1.1006998
-2.2864573 -19.97832 -1.1006998
-3.4659103 -19.97832 -1.1006998
-4.6453678 -19.97832 -1.1006998
-5.8248299 -19.97832 -1.1006998
-7.0042646 -19.97832 -1.1006998
-8.183745 -19.97832 -1.1006998
-9.3631796 -19.97832 -1.1006998
-10.54266 -19.97832 -1.1006998
-11.722095 -19.97832 -1.1006998
-12.901575 -19.97832 -1.1006998
-14.08101 -19.97832 -1.1006998
-15.26049 -19.97832 -1.1006998
-16.439925 -19.97832 -1.1006998
-17.619405 -19.97832 -1.1006998
-18.79884 -19.97832 -1.1006998
-19.97832 -19.97832 -1.1006998
-21.157755 -19.97832 -1.1006998
-22.337235 -19.97832 -1.1006998
-23.52297 -19.97832 -1.1006998
-1.1006998 -21.157755 -1.1006998
-2.2864573 -21.157755 -1.1006998
-3.4659103 -21.157755 -1.1006998
-4.6453678 -21.157755 -1.1006998
-5.8248299 -21.157755 -1.1006998
-7.0042646 -21.157755 -1.1006998
-8.183745 -21.157755 -1.1006998
-9.3631796 -21.157755 -1.1006998
-10.54266 -21.157755 -1.1006998
-11.722095 -21.157755 -1.1006998
-12.901575 -21.157755 -1.1006998
-14.08101 -21.157755 -1.1006998
-15.26049 -21.157755 -1.1006998
-16.439925 -21.157755 -1.1006998
-17.619405 -21.157755 -1.1006998
-18.79884 -21.157755 -1.1006998
-19.97832 -21.157755 -1.1006998
-21.157755 -21.157755 -1.1006998
-22.337235 -21.157755 -1.1006998
-23.52297 -21.157755 -1.1006998
-1.1006998 -22.337235 -1.1006998
-2.2864573 -22.337235 -1.1006998
-3.4659103 -22.337235 -1.1006998
-4.6453678 -22.337235 -1.1006998
-5.8248299 -22.337235 -1.1006998
-7.0042646 -22.337235 -1.1006998
-8.183745 -22.337235 -1.1006998
-9.3631796 -22.337235 -1.1006998
-10.54266 -22.337235 -1.1006998
-11.722095 -22.337235 -1.1006998
-12.901575 -22.337235 -1.1006998
-14.08101 -22.337235 -1.1006998
-15.26049 -22.337235 -1.1006998
-16.439925 -22.337235 -1.1006998
-17.619405 -22.337235 -1.1006998
-18.79884 -22.337235 -1.1006998
-19.97832 -22.337235 -1.1006998
-21.157755 -22.337235 -1.1006998
-22.337235 -22.337235 -1.1006998
-23.52297 -22.337235 -1.1006998
-1.1006998 -23.52297 -1.1006998
-2.2864573 -23.52297 -1.1006998
-3.4659103 -23.52297 -1.1006998
-4.6453678 -23.52297 -1.1006998
-5.8248299 -23.52297 -1.1006998
-7.0042646 -23.52297 -1.1006998
-8.183745 -23.52297 -1.1006998
-9.3631796 -23.52297 -1.1006998
-10.54266 -23.52297 -1.1006998
-11.722095 -23.52297 -1.1006998
-12.901575 -23.52297 -1.1006998
-14.08101 -23.52297 -1.1006998
-15.26049 -23.52297 -1.1006998
-16.439925 -23.52297 -1.1006998
-17.619405 -23.52297 -1.1006998
-18.79884 -23.52297 -1.1006998
-19.97832 -23.52297 -1.1006998
-21.157755 -23.52297 -1.1006998
-22.337235 -23.52297 -1.1006998
-23.52297 -23.52297 -1.1006998
-1.1006998 -1.1006998 -2.2864573
-2.2864573 -1.1006998 -2.2864573
-3.4659103 -1.1006998 -2.2864573
-4.6453678 -1.1006998 -2.2864573
-5.8248299 -1.1006998 -2.2864573
-7.0042646 -1.1006998 -2.2864573
-8.183745 -1.1006998 -2.2864573
-9.3631796 -1.1006998 -2.2864573
-10.54266 -1.1006998 -2.2864573
-11.722095 -1.1006998 -2.2864573
-12.901575 -1.1006998 -2.2864573
-14.08101 -1.1006998 -2.2864573
-15.26049 -1.1006998 -2.2864573
-16.439925 -1.1006998 -2.2864573
-17.619405 -1.1006998 -2.2864573
-18.79884 -1.1006998 -2.2864573
-19.97832 -1.1006998 -2.2864573
-21.157755 -1.1006998 -2.2864573
-22.337235 -1.1006998 -2.2864573
-23.52297 -1.1006998 -2.2864573
-1.1006998 -2.2864573 -2.2864573
-2.2864573 -2.2864573 -2.2864573
-3.4659103 -2.2864573 -2.2864573
-4.6453678 -2.2864573 -2.2864573
-5.8248299 -2.2864573 -2.2864573
-7.0042646 -2.2864573 -2.2864573
-8.183745 -2.2864573 -2.2864573
-9.3631796 -2.2864573 -2.2864573
-10.54266 -2.2864573 -2.2864573
-11.722095 -2.2864573 -2.2864573