# vtk DataFile Version 4.0
hesp visualization file
ASCII
DATASET UNSTRUCTURED_GRID
POINTS 3000 double
0.018036278 0.018036278 0.018036278
2.0745978 0.018036278 0.018036278
4.1354497 0.018036278 0.018036278
6.1963096 0.018036278 0.018036278
8.2571776 0.018036278 0.018036278
10.317998 0.018036278 0.018036278
12.378897 0.018036278 0.018036278
14.439717 0.018036278 0.018036278
16.500617 0.018036278 0.018036278
18.561437 0.018036278 0.018036278
20.622337 0.018036278 0.018036278
22.683157 0.018036278 0.018036278
24.744057 0.018036278 0.018036278
26.804877 0.018036278 0.018036278
28.865777 0.018036278 0.018036278
30.926597 0.018036278 0.018036278
32.987497 0.018036278 0.018036278
35.048317 0.018036278 0.018036278
37.109217 0.018036278 0.018036278
39.165738 0.018036278 0.018036278
0.018036278 2.0745978 0.018036278
2.0745978 2.0745978 0.018036278
4.1354497 2.0745978 0.018036278
6.1963096 2.0745978 0.018036278
8.2571776 2.0745978 0.018036278
10.317998 2.0745978 0.018036278
12.378897 2.0745978 0.018036278
14.439717 2.0745978 0.018036278
16.500617 2.0745978 0.018036278
18.561437 2.0745978 0.018036278
20.622337 2.0745978 0.018036278
22.683157 2.0745978 0.018036278
24.744057 2.0745978 0.018036278
26.804877 2.0745978 0.018036278
28.865777 2.0745978 0.018036278
30.926597 2.0745978 0.018036278
32.987497 2.0745978 0.018036278
35.048317 2.0745978 0.018036278
37.109217 2.0745978 0.018036278
39.165738 2.0745978 0.018036278
0.018036278 4.1354497 0.018036278
2.0745978 4.1354497 0.018036278
4.1354497 4.1354497 0.018036278
6.1963096 4.1354497 0.018036278
8.2571776 4.1354497 0.018036278
10.317998 4.1354497 0.018036278
12.378897 4.1354497 0.018036278
14.439717 4.1354497 0.018036278
16.500617 4.1354497 0.018036278
18.561437 4.1354497 0.018036278
20.622337 4.1354497 0.018036278
22.683157 4.1354497 0.018036278
24.744057 4.1354497 0.018036278
26.804877 4.1354497 0.018036278
28.865777 4.1354497 0.018036278
30.926597 4.1354497 0.018036278
32.987497 4.1354497 0.018036278
35.048317 4.1354497 0.018036278
37.109217 4.1354497 0.018036278
39.165738 4.1354497 0.018036278
0.018036278 6.1963096 0.018036278
2.0745978 6.1963096 0.018036278
4.1354497 6.1963096 0.018036278
6.1963096 6.1963096 0.018036278
8.2571776 6.1963096 0.018036278
10.317998 6.1963096 0.018036278
12.378897 6.1963096 0.018036278
14.439717 6.1963096 0.018036278
16.500617 6.1963096 0.018036278
18.561437 6.1963096 0.018036278
20.622337 6.1963096 0.018036278
22.683157 6.1963096 0.018036278
24.744057 6.1963096 0.018036278
26.804877 6.1963096 0.018036278
28.865777 6.1963096 0.018036278
30.926597 6.1963096 0.018036278
32.987497 6.1963096 0.018036278
35.048317 6.1963096 0.018036278
37.109217 6.1963096 0.018036278
39.165738 6.1963096 0.018036278
0.018036278 8.2571776 0.018036278
2.0745978 8.2571776 0.018036278
4.1354497 8.2571776 0.018036278
6.1963096 8.2571776 0.018036278
8.2571776 8.2571776 0.018036278
10.317998 8.2571776 0.018036278
12.378897 8.2571776 0.018036278
14.439717 8.2571776 0.018036278
16.500617 8.2571776 0.018036278
18.561437 8.2571776 0.018036278
20.622337 8.2571776 0.018036278
22.683157 8.2571776 0.018036278
24.744057 8.2571776 0.018036278
26.804877 8.2571776 0.018036278
28.865777 8.2571776 0.018036278
30.926597 8.2571776 0.018036278
32.987497 8.2571776 0.018036278
35.048317 8.2571776 0.018036278
37.109217 8.2571776 0.018036278
39.165738 8.2571776 0.018036278
0.018036278 10.317998 0.018036278
2.0745978 10.317998 0.018036278
4.1354497 10.317998 0.018036278
6.1963096 10.317998 0.018036278
8.2571776 10.317998 0.018036278
10.317998 10.317998 0.018036278
12.378897 10.317998 0.018036278
14.439717 10.317998 0.018036278
16.500617 10.317998 0.018036278
18.561437 10.317998 0.018036278
20.622337 10.317998 0.018036278
22.683157 10.317998 0.018036278
24.744057 10.317998 0.018036278
26.804877 10.317998 0.018036278
28.865777 10.317998 0.018036278
30.926597 10.317998 0.018036278
32.987497 10.317998 0.018036278
35.048317 10.317998 0.018036278
37.109217 10.317998 0.018036278
39.165738 10.317998 0.018036278
0.018036278 12.378897 0.018036278
2.0745978 12.378897 0.018036278
4.1354497 12.378897 0.018036278
6.1963096 12.378897 0.018036278
8.2571776 12.378897 0.018036278
10.317998 12.378897 0.018036278
12.378897 12.378897 0.018036278
14.439717 12.378897 0.018036278
16.500617 12.378897 0.018036278
18.561437 12.378897 0.018036278
20.622337 12.378897 0.018036278
22.683157 12.378897 0.018036278
24.744057 12.378897 0.018036278
26.804877 12.378897 0.018036278
28.865777 12.378897 0.018036278
30.926597 12.378897 0.018036278
32.987497 12.378897 0.018036278
35.048317 12.378897 0.018036278
37.109217 12.378897 0.018036278
39.165738 12.378897 0.018036278
0.018036278 14.439717 0.018036278
2.0745978 14.439717 0.018036278
4.1354497 14.439717 0.018036278
6.1963096 14.439717 0.018036278
8.2571776 14.439717 0.018036278
10.317998 14.439717 0.018036278
12.378897 14.439717 0.018036278
14.439717 14.439717 0.018036278
16.500617 14.439717 0.018036278
18.561437 14.439717 0.018036278
20.622337 14.439717 0.018036278
22.683157 14.439717 0.018036278
24.744057 14.439717 0.018036278
26.804877 14.439717 0.018036278
28.865777 14.439717 0.018036278
30.926597 14.439717 0.018036278
32.987497 14.439717 0.018036278
35.048317 14.439717 0.018036278
37.109217 14.439717 0.018036278
39.165738 14.439717 0.018036278
0.018036278 16.500617 0.018036278
2.0745978 16.500617 0.018036278
4.1354497 16.500617 0.018036278
6.1963096 16.500617 0.018036278
8.2571776 16.500617 0.018036278
10.317998 16.500617 0.018036278
12.378897 16.500617 0.018036278
14.439717 16.500617 0.018036278
16.500617 16.500617 0.018036278
18.561437 16.500617 0.018036278
20.622337 16.500617 0.018036278
22.683157 16.500617 0.018036278
24.744057 16.500617 0.018036278
26.804877 16.500617 0.018036278
28.865777 16.500617 0.018036278
30.926597 16.500617 0.018036278
32.987497 16.500617 0.018036278
35.048317 16.500617 0.018036278
37.109217 16.500617 0.018036278
39.165738 16.500617 0.018036278
0.018036278 18.561437 0.018036278
2.0745978 18.561437 0.018036278
4.1354497 18.561437 0.018036278
6.1963096 18.561437 0.018036278
8.2571776 18.561437 0.018036278
10.317998 18.561437 0.018036278
12.378897 18.561437 0.018036278
14.439717 18.561437 0.018036278
16.500617 18.561437 0.018036278
18.561437 18.561437 0.018036278
20.622337 18.561437 0.018036278
22.683157 18.561437 0.018036278
24.744057 18.561437 0.018036278
26.804877 18.561437 0.018036278
28.865777 18.561437 0.018036278
30.926597 18.561437 0.018036278
32.987497 18.561437 0.018036278
35.048317 18.561437 0.018036278
37.109217 18.561437 0.018036278
39.165738 18.561437 0.018036278
0.018036278 20.622337 0.018036278
2.0745978 20.622337 0.018036278
4.1354497 20.622337 0.018036278
6.1963096 20.622337 0.018036278
8.2571776 20.622337 0.018036278
10.317998 20.622337 0.018036278
12.378897 20.622337 0.018036278
14.439717 20.622337 0.018036278
16.500617 20.622337 0.018036278
18.561437 20.622337 0.018036278
20.622337 20.622337 0.018036278
22.683157 20.622337 0.018036278
24.744057 20.622337 0.018036278
26.804877 20.622337 0.018036278
28.865777 20.622337 0.018036278
30.926597 20.622337 0.018036278
32.987497 20.622337 0.018036278
35.048317 20.622337 0.018036278
37.109217 20.622337 0.018036278
39.165738 20.622337 0.018036278
0.018036278 22.683157 0.018036278
2.0745978 22.683157 0.018036278
4.1354497 22.683157 0.018036278
6.1963096 22.683157 0.018036278
8.2571776 22.683157 0.018036278
10.317998 22.683157 0.018036278
12.378897 22.683157 0.018036278
14.439717 22.683157 0.018036278
16.500617 22.683157 0.018036278
18.561437 22.683157 0.018036278
20.622337 22.683157 0.018036278
22.683157 22.683157 0.018036278
24.744057 22.683157 0.018036278
26.804877 22.683157 0.018036278
28.865777 22.683157 0.018036278
30.926597 22.683157 0.018036278
32.987497 22.683157 0.018036278
35.048317 22.683157 0.018036278
37.109217 22.683157 0.018036278
39.165738 22.683157 0.018036278
0.018036278 24.744057 0.018036278
2.0745978 24.744057 0.018036278
4.1354497 24.744057 0.018036278
6.1963096 24.744057 0.018036278
8.2571776 24.744057 0.018036278
10.317998 24.744057 0.018036278
12.378897 24.744057 0.018036278
14.439717 24.744057 0.018036278
16.500617 24.744057 0.018036278
18.561437 24.744057 0.018036278
20.622337 24.744057 0.018036278
22.683157 24.744057 0.018036278
24.744057 24.744057 0.018036278
26.804877 24.744057 0.018036278
28.865777 24.744057 0.018036278
30.926597 24.744057 0.018036278
32.987497 24.744057 0.018036278
35.048317 24.744057 0.018036278
37.109217 24.744057 0.018036278
39.165738 24.744057 0.018036278
0.018036278 26.804877 0.018036278
2.0745978 26.804877 0.018036278
4.1354497 26.804877 0.018036278
6.1963096 26.804877 0.018036278
8.2571776 26.804877 0.018036278
10.317998 26.804877 0.018036278
12.378897 26.804877 0.018036278
14.439717 26.804877 0.018036278
16.500617 26.804877 0.018036278
18.561437 26.804877 0.018036278
20.622337 26.804877 0.018036278
22.683157 26.804877 0.018036278
24.744057 26.804877 0.018036278
26.804877 26.804877 0.018036278
28.865777 26.804877 0.018036278
30.926597 26.804877 0.018036278
32.987497 26.804877 0.018036278
35.048317 26.804877 0.018036278
37.109217 26.804877 0.018036278
39.165738 26.804877 0.018036278
0.018036278 28.865777 0.018036278
2.0745978 28.865777 0.018036278
4.1354497 28.865777 0.018036278
6.1963096 28.865777 0.018036278
8.2571776 28.865777 0.018036278
10.317998 28.865777 0.018036278
12.378897 28.865777 0.018036278
14.439717 28.865777 0.018036278
16.500617 28.865777 0.018036278
18.561437 28.865777 0.018036278
20.622337 28.865777 0.018036278
22.683157 28.865777 0.018036278
24.744057 28.865777 0.018036278
26.804877 28.865777 0.018036278
28.865777 28.865777 0.018036278
30.926597 28.865777 0.018036278
32.987497 28.865777 0.018036278
35.048317 28.865777 0.018036278
37.109217 28.865777 0.018036278
39.165738 28.865777 0.018036278
0.018036278 30.926597 0.018036278
2.0745978 30.926597 0.018036278
4.1354497 30.926597 0.018036278
6.1963096 30.926597 0.018036278
8.2571776 30.926597 0.018036278
10.317998 30.926597 0.018036278
12.378897 30.926597 0.018036278
[...]
POINT_DATA 3000
SCALARS m double
LOOKUP_TABLE default
1
1
1
1
1
1
1
1
1
1
1
1
1
1
1
1
1
1
1
1
1
1
1
1
1
1
1
1
1
1
1
1
1
1
1
1
1
1
1
1
1
1
1
1
1
1
1
1
1
1
1
1
1
1
1
1
1
1
1
1
1
1
1
1
1
1
1
1
1
1
1
1
1
1
1
1
1
1
1
1
1
1
1
1
1
1
1
1
1
1
1
1
1
1
1
1
1
1
1
1
1
1
1
1
1
1
1
1
1
1
1
1
1
1
1
1
1
1
1
1
1
1
1
1
1
1
1
1
1
1
1
1
1
1
1
1
1
1
1
1
1
1
1
1
1
1
1
1
1
1
1
1
1
1
1
1
1
1
1
1
1
1
1
1
1
1
1
1
1
1
1
1
1
1
1
1
1
1
1
1
1
1
1
1
1
1
1
1
1
1
1
1
1
1
1
1
1
1
1
1
1
1
1
1
1
1
1
1
1
1
1
1
1
1
1
1
1
1
1
1
1
1
1
1
1
1
1
1
1
1
1
1
1
1
1
1
1
1
1
1
1
1
1
1
1
1
1
1
1
1
1
1
1
1
1
1
1
1
1
1
1
1
1
1
1
1
1
1
1
1
1
1
1
1
1
1
1
1
1
1
1
1
1
1
1
1
1
1
1
1
1
1
1
1
1
1
1
1
1
1
1
1
1
1
1
1
1
1
1
1
1
1
1
1
1
1
1
1
1
1
1
1
1
1
1
1
1
1
1
1
1
1
1
1
1
1
1
1
1
1
1
1
1
1
1
1
1
1
1
1
1
1
1
1
1
1
1
1
1
1
1
1
1
1
1
1
1
1
1
1
1
1
1
1
1
1
1
1
1
1
1
1
1
1
1
1
1
1
1
1
1
1
1
1
1
1
1
1
1
1
1
1
1
1
1
1
1
1
1
1
1
1
1
1
1
1
1
1
1
1
1
1
1
1
1
1
1
1
1
1
1
1
1
1
1
1
1
1
1
1
1
1
1
1
1
1
1
1
1
1
1
1
1
1
1
1
1
1
1
1
1
1
1
1
1
1
1
1
1
1
1
1
1
1
1
1
1
1
1
1
1
1
1
1
1
1
1
1
1
1
1
1
1
1
1
1
1
1
1
1
1
1
1
1
1
1
1
1
1
1
1
1
1
1
1
1
1
1
1
1
1
1
1
1
1
1
1
1
1
1
1
1
1
1
1
1
1
1
1
1
1
1
1
1
1
1
1
1
1
1
1
1
1
1
1
1
1
1
1
1
1
1
1
1
1
1
1
1
1
1
1
1
1
1
1
1
1
1
1
1
1
1
1
1
1
1
1
1
1
1
1
1
1
1
1
1
1
1
1
1
1
1
1
1
1
1
1
1
1
1
1
1
1
1
1
1
1
1
1
1
1
1
1
1
1
1
1
1
1
1
1
1
1
1
1
1
1
1
1
1
1
1
1
1
1
1
1
1
1
1
1
1
1
1
1
1
1
1
1
1
1
1
1
1
1
1
1
1
1
1
1
1
1
1
1
1
1
1
1
1
1
1
1
1
1
1
1
1
1
1
1
1
1
1
1
1
1
1
1
1
1
1
1
1
1
1
1
1
1
1
1
1
1
1
1
1
1
1
1
1
1
1
1
1
1
1
1
1
1
1
1
1
1
1
1
1
1
1
1
1
1
1
1
1
1
1
1
1
1
1
1
1
1
1
1
1
1
1
1
1
1
1
1
1
1
1
1
1
1
1
1
1
1
1
1
1
1
1
1
1
1
1
1
1
1
1
1
1
1
1
1
1
1
1
1
1
1
1
1
1
1
1
1
1
1
1
1
1
1
1
1
1
1
1
1
1
1
1
1
1
1
1
1
1
1
1
1
1
1
1
1
1
1
1
1
1
1
1
1
1
1
1
1
1
1
1
1
1
1
1
1
1
1
1
1
1
1
1
1
1
1
1
1
1
1
1
1
1
1
1
1
1
1
1
1
1
1
1
1
1
1
1
1
1
1
1
1
1
1
1
1
1
1
1
1
1
1
1
1
1
1
1
1
1
1
1
1
1
1
1
1
1
1
1
1
1
1
1
1
1
1
1
1
1
1
1
1
1
1
1
1
1
1
1
1
1
1
1
1
1
1
1
1
1
1
1
1
1
1
1
1
1
1
1
1
1
1
1
1
1
1
1
1
1
1
1
1
1
1
1
1
1
1
1
1
1
1
1
1
1
1
1
1
1
1
1
1
1
1
1
1
1
1
1
1
1
1
1
1
1
1
1
1
1
1
1
1
1
1
1
1
1
1
1
1
1
1
1
1
1
1
1
1
1
1
1
1
1
1
1
1
1
1
1
1
1
1
1
1
1
1
1
1
1
1
1
1
1
1
1
1
1
1
1
1
1
1
1
1
1
1
1
1
1
1
1
1
1
1
1
1
1
1
1
1
1
1
1
1
1
1
1
1
1
1
1
1
1
1
1
1
1
1
1
1
1
1
1
1
1
1
1
1
1
1
1
1
1
1
1
1
1
1
1
1
1
1
1
1
1
1
1
1
1
1
1
1
1
1
1
1
1
1
1
1
1
1
1
1
1
1
1
1
1
1
1
1
1
1
1
1
1
1
1
1
1
1
1
1
1
1
1
1
1
1
1
1
1
1
1
1
1
1
1
1
1
1
1
1
1
1
1
1
1
1
1
1
1
1
1
1
1
1
1
1
1
1
1
1
1
1
1
1
1
1
1
1
1
1
1
1
1
1
1
1
1
1
1
1
1
1
1
1
1
1
1
1
1
1
1
1
1
1
1
1
1
1
1
1
1
1
1
1
1
1
1
1
1
1
1
1
1
1
1
1
1
1
1
1
1
1
1
1
1
1
1
1
1
1
1
1
1
1
1
1
1
1
1
1
1
1
1
1
1
1
1
1
1
1
1
1
1
1
1
1
1
1
1
1
1
1
1
1
1
1
1
1
1
1
1
1
1
1
1
1
1
1
1
1
1
1
1
1
1
1
1
1
1
1
1
1
1
1
1
1
1
1
1
1
1
1
1
1
1
1
1
1
1
1
1
1
1
1
1
1
1
1
1
1
1
1
1
1
1
1
1
1
1
1
1
1
1
1
1
1
1
1
1
1
1
1
1
1
1
1
1
1
1
1
1
1
1
1
1
1
1
1
1
1
1
1
1
1
1
1
1
1
1
1
1
1
1
1
1
1
1
1
1
1
1
1
1
1
1
1
1
1
1
1
1
1
1
1
1
1
1
1
1
1
1
1
1
1
1
1
1
1
1
1
1
1
1
1
1
1
1
1
1
1
1
1
1
1
1
1
1
1
1
1
1
1
1
1
1
1
1
1
1
1
1
1
1
1
1
1
1
1
1
1
1
1
1
1
1
1
1
1
1
1
1
1
1
1
1
1
1
1
1
1
1
1
1
1
1
1
1
1
1
1
1
1
1
1
1
1
1
1
1
1
1
1
1
1
1
1
1
1
1
1
1
1
1
1
1
1
1
1
1
1
1
1
1
1
1
1
1
1
1
1
1
1
1
1
1
1
1
1
1
1
1
1
1
1
1
1
1
1
1
1
1
1
1
1
1
1
1
1
1
1
1
1
1
1
1
1
1
1
1
1
1
1
1
1
1
1
1
1
1
1
1
1
1
1
1
1
1
1
1
1
1
1
1
1
1
1
1
1
1
1
1
1
1
1
1
1
1
1
1
1
1
1
1
1
1
1
1
1
1
1
1
1
1
1
1
1
1
1
1
1
1
1
1
1
1
1
1
1
1
1
1
1
1
1
1
1
1
1
1
1
1
1
1
1
1
1
1
1
1
1
1
1
1
1
1
1
1
1
1
1
1
1
1
1
1
1
1
1
1
1
1
1
1
1
1
1
1
1
1
1
1
1
1
1
1
1
1
1
1
1
1
1
1
1
1
1
1
1
1
1
1
1
1
1
1
1
1
1
1
1
1
1
1
1
1
1
1
1
1
1
1
1
1
1
1
1
1
1
1
1
1
1
1
1
1
1
1
1
1
1
1
1
1
1
1
1
1
1
1
1
1
1
1
1
1
1
1
1
1
1
1
1
1
1
1
1
1
1
1
1
1
1
1
1
1
1
1
1
1
1
1
1
1
1
1
1
1
1
1
1
1
1
1
1
1
1
1
1
1
1
1
1
1
1
1
1
1
1
1
1
1
1
1
1
1
1
1
1
1
1
1
1
1
1
1
1
1
1
1
1
1
1
1
1
1
1
1
1
1
1
1
1
1
1
1
1
1
1
1
1
1
1
1
1
1
1
1
1
1
1
1
1
1
1
1
1
1
1
1
1
1
1
1
1
1
1
1
1
1
1
1
1
1
1
1
1
1
1
1
1
1
1
1
1
1
1
1
1
1
1
1
1
1
1
1
1
1
1
1
1
1
1
1
1
1
1
1
1
1
1
1
1
1
1
1
1
1
1
1
1
1
1
1
1
1
1
1
1
1
1
1
1
1
1
1
1
1
1
1
1
1
1
1
1
1
1
1
1
1
1
1
1
1
1
1
1
1
1
1
1
1
1
1
1
1
1
1
1
1
1
1
1
1
1
1
1
1
1
1
1
1
1
1
1
1
1
1
1
1
1
1
1
1
1
1
1
1
1
1
1
1
1
1
1
1
1
1
1
1
1
1
1
1
1
1
1
1
1
1
1
1
1
1
1
1
1
1
1
1
1
1
1
1
1
1
1
1
1
1
1
1
1
1
1
1
1
1
1
1
1
1
1
1
1
1
1
1
1
1
1
1
1
1
1
1
1
1
1
1
1
1
1
1
1
1
1
1
1
1
1
1
1
1
1
1
1
1
1
1
1
1
1
1
1
1
1
1
1
1
1
1
1
1
1
1
1
1
1
1
1
1
1
1
1
1
1
1
1
1
1
1
1
1
1
1
1
1
1
1
1
1
1
1
1
1
1
1
1
1
1
1
1
1
1
1
1
1
1
1
1
1
1
1
1
1
1
1
1
1
1
1
1
1
1
1
1
1
1
1
1
1
1
1
1
1
1
1
1
1
1
1
1
1
1
1
1
1
1
1
1
1
1
1
1
1
1
1
1
1
1
1
1
1
1
1
1
1
1
1
1
1
1
1
1
1
1
1
1
1
1
1
1
1
1
1
1
1
1
1
1
1
1
1
1
1
1
1
1
1
1
1
1
1
1
1
1
1
1
1
1
1
1
1
1
1
1
1
1
1
1
1
1
1
1
1
1
1
1
1
1
1
1
1
1
1
1
1
1
1
1
1
1
1
1
1
1
1
1
1
1
1
1
1
1
1
1
1
1
1
1
1
1
1
1
1
1
1
1
1
1
1
1
1
1
1
1
1
1
1
1
1
1
1
1
1
1
1
1
1
1
1
1
1
1
1
1
1
1
1
1
1
1
1
1
1
1
1
1
1
1
1
1
1
1
1
1
1
1
1
1
1
1
1
1
1
1
1
1
1
1
1
1
1
1
1
1
1
1
1
1
1
1
1
1
1
1
1
1
1
1
1
1
1
1
1
1
1
1
1
1
1
1
1
1
1
1
1
1
1
1
1
1
1
1
1
1
1
1
1
1
1
1
1
1
1
1
1
1
1
1
1
1
1
1
1
1
1
1
1
1
1
1
1
1
1
1
1
1
1
1
1
1
1
1
1
1
1
1
1
1
1
1
1
1
1
1
1
1
1
1
1
1
1
1
1
1
1
1
1
1
1
1
1
1
1
1
1
1
1
1
1
1
1
1
1
1
1
1
1
1
1
1
1
1
1
1
1
1
1
1
1
1
1
1
1
1
1
1
1
1
1
1
1
1
1
1
1
1
1
1
1
1
1
1
1
1
1
1
1
1
1
1
1
1
1
1
1
1
1
1
1
1
1
1
1
1
1
1
1
1
1
1
1
1
1
1
1
1
1
1
1
1
1
1
1
1
1
1
1
1
1
1
1
1
1
1
1
1
1
1
1
1
1
1
1
1
1
1
1
1
1
1
1
1
1
1
1
1
1
1
1
1
1
1
1
1
1
1
1
1
1
1
1
1
1
1
1
1
1
1
1
1
1
1
1
1
1
1
1
1
1
1
1
1
1
1
1
1
1
1
1
1
1
1
1
1
1
1
1
1
1
1
1
1
1
1
1
1
1
1
1
1
1
1
1
1
1
1
1
1
1
1
1
1
1
1
1
1
1
1
1
1
1
1
1
1
1
1
1
1
1
1
1
1
1
1
1
1
1
1
1
1
1
1
1
1
1
1
1
1
1
1
1
1
1
1
1
1
1
1
1
1
1
1
1
1
1
1
1
1
1
1
1
1
1
1
1
1
1
1
1
1
1
1
1
1
1
1
1
1
1
1
1
1
1
1
1
1
1
1
1
1
1
1
1
1
1
1
1
1
1
1
1
1
1
1
1
1
1
1
1
1
1
1
1
1
1
1
1
1
1
1
1
1
1
1
1
1
1
1
1
1
1
1
1
1
1
1
1
1
1
1
1
1
1
1
1
1
1
1
1
1
1
1
1
1
1
1
1
1
1
1
1
1
1
1
1
1
1
1
1
1
1
1
1
1
1
1
1
1
1
1
1
1
1
1
1
1
1
1
1
1
1
1
1
1
1
1
1
1
1
1
1
1
1
1
1
1
1
1
1
1
1
1
1
1
1
1
1
1
1
1
1
1
1
1
1
1
1
1
1
1
1
1
1
1
1
1
1
1
1
1
1
1
1
1
1
1
1
1
1
1
1
1
1
1
1
1
1
1
1
1
1
1
1
1
1
1
1
1
1
VECTORS v double
-1.449562 -1.449562 -1.449562
-3.0056825 -1.449562 -1.449562
-4.5561428 -1.449562 -1.449562
-6.106609 -1.449562 -1.449562
-7.6570813 -1.449562 -1.449562
-9.2075175 -1.449562 -1.449562
-10.758014 -1.449562 -1.449562
-12.30845 -1.449562 -1.449562
-13.858946 -1.449562 -1.449562
-15.409382 -1.449562 -1.449562
-16.959879 -1.449562 -1.449562
-18.510315 -1.449562 -1.449562
-20.060811 -1.449562 -1.449562
-21.611248 -1.449562 -1.449562
-23.161744 -1.449562 -1.449562
-24.71218 -1.449562 -1.449562
-26.262676 -1.449562 -1.449562
-27.813113 -1.449562 -1.449562
-29.363609 -1.449562 -1.449562
-30.919699 -1.449562 -1.449562
-1.449562 -3.0056825 -1.449562
-3.0056825 -3.0056825 -1.449562
-4.5561428 -3.0056825 -1.449562
-6.106609 -3.0056825 -1.449562
-7.6570813 -3.0056825 -1.449562
-9.2075175 -3.0056825 -1.449562
-10.758014 -3.0056825 -1.449562
-12.30845 -3.0056825 -1.449562
-13.858946 -3.0056825 -1.449562
-15.409382 -3.0056825 -1.449562
-16.959879 -3.0056825 -1.449562
-18.510315 -3.0056825 -1.449562
-20.060811 -3.0056825 -1.449562
-21.611248 -3.0056825 -1.449562
-23.161744 -3.0056825 -1.449562
-24.71218 -3.0056825 -1.449562
-26.262676 -3.0056825 -1.449562
-27.813113 -3.0056825 -1.449562
-29.363609 -3.0056825 -1.449562
-30.919699 -3.0056825 -1.449562
-1.449562 -4.5561428 -1.449562
-3.0056825 -4.5561428 -1.449562
-4.5561428 -4.5561428 -1.449562
-6.106609 -4.5561428 -1.449562
-7.6570813 -4.5561428 -1.449562
-9.2075175 -4.5561428 -1.449562
-10.758014 -4.5561428 -1.449562
-12.30845 -4.5561428 -1.449562
-13.858946 -4.5561428 -1.449562
-15.409382 -4.5561428 -1.449562
-16.959879 -4.5561428 -1.449562
-18.510315 -4.5561428 -1.449562
-20.060811 -4.5561428 -1.449562
-21.611248 -4.5561428 -1.449562
-23.161744 -4.5561428 -1.449562
-24.71218 -4.5561428 -1.449562
-26.262676 -4.5561428 -1.449562
-27.813113 -4.5561428 -1.449562
-29.363609 -4.5561428 -1.449562
-30.919699 -4.5561428 -1.449562
-1.449562 -6.106609 -1.449562
-3.0056825 -6.106609 -1.449562
-4.5561428 -6.106609 -1.449562
-6.106609 -6.106609 -1.449562
-7.6570813 -6.106609 -1.449562
-9.2075175 -6.106609 -1.449562
-10.758014 -6.106609 -1.449562
-12.30845 -6.106609 -1.449562
-13.858946 -6.106609 -1.449562
-15.409382 -6.106609 -1.449562
-16.959879 -6.106609 -1.449562
-18.510315 -6.106609 -1.449562
-20.060811 -6.106609 -1.449562
-21.611248 -6.106609 -1.449562
-23.161744 -6.106609 -1.449562
-24.71218 -6.106609 -1.449562
-26.262676 -6.106609 -1.449562
-27.813113 -6.106609 -1.449562
-29.363609 -6.106609 -1.449562
-30.919699 -6.106609 -1.449562
-1.449562 -7.6570813 -1.449562
-3.0056825 -7.6570813 -1.449562
-4.5561428 -7.6570813 -1.449562
-6.106609 -7.6570813 -1.449562
-7.6570813 -7.6570813 -1.449562
-9.2075175 -7.6570813 -1.449562
-10.758014 -7.6570813 -1.449562
-12.30845 -7.6570813 -1.449562
-13.858946 -7.6570813 -1.449562
-15.409382 -7.6570813 -1.449562
-16.959879 -7.6570813 -1.449562
-18.510315 -7.6570813 -1.449562
-20.060811 -7.6570813 -1.449562
-21.611248 -7.6570813 -1.449562
-23.161744 -7.6570813 -1.449562
-24.71218 -7.6570813 -1.449562
-26.262676 -7.6570813 -1.449562
-27.813113 -7.6570813 -1.449562
-29.363609 -7.6570813 -1.449562
-30.919699 -7.6570813 -1.449562
-1.449562 -9.2075175 -1.449562
-3.0056825 -9.2075175 -1.449562
-4.5561428 -9.2075175 -1.449562
-6.106609 -9.2075175 -1.449562
-7.6570813 -9.2075175 -1.449562
-9.2075175 -9.2075175 -1.449562
-10.758014 -9.2075175 -1.449562
-12.30845 -9.2075175 -1.449562
-13.858946 -9.2075175 -1.449562
-15.409382 -9.2075175 -1.449562
-16.959879 -9.2075175 -1.449562
-18.510315 -9.2075175 -1.449562
-20.060811 -9.2075175 -1.449562
-21.611248 -9.2075175 -1.449562
-23.161744 -9.2075175 -1.449562
-24.71218 -9.2075175 -1.449562
-26.262676 -9.2075175 -1.449562
-27.813113 -9.2075175 -1.449562
-29.363609 -9.2075175 -1.449562
-30.919699 -9.2075175 -1.449562
-1.449562 -10.758014 -1.449562
-3.0056825 -10.758014 -1.449562
-4.5561428 -10.758014 -1.449562
-6.106609 -10.758014 -1.449562
-7.6570813 -10.758014 -1.449562
-9.2075175 -10.758014 -1.449562
-10.758014 -10.758014 -1.449562
-12.30845 -10.758014 -1.449562
-13.858946 -10.758014 -1.449562
-15.409382 -10.758014 -1.449562
-16.959879 -10.758014 -1.449562
-18.510315 -10.758014 -1.449562
-20.060811 -10.758014 -1.449562
-21.611248 -10.758014 -1.449562
-23.161744 -10.758014 -1.449562
-24.71218 -10.758014 -1.449562
-26.262676 -10.758014 -1.449562
-27.813113 -10.758014 -1.449562
-29.363609 -10.758014 -1.449562
-30.919699 -10.758014 -1.449562
-1.449562 -12.30845 -1.449562
-3.0056825 -12.30845 -1.449562
-4.5561428 -12.30845 -1.449562
-6.106609 -12.30845 -1.449562
-7.6570813 -12.30845 -1.449562
-9.2075175 -12.30845 -1.449562
-10.758014 -12.30845 -1.449562
-12.30845 -12.30845 -1.449562
-13.858946 -12.30845 -1.449562
-15.409382 -12.30845 -1.449562
-16.959879 -12.30845 -1.449562
-18.510315 -12.30845 -1.449562
-20.060811 -12.30845 -1.449562
-21.611248 -12.30845 -1.449562
-23.161744 -12.30845 -1.449562
-24.71218 -12.30845 -1.449562
-26.262676 -12.30845 -1.449562
-27.813113 -12.30845 -1.449562
-29.363609 -12.30845 -1.449562
-30.919699 -12.30845 -1.449562
-1.449562 -13.858946 -1.449562
-3.0056825 -13.858946 -1.449562
-4.5561428 -13.858946 -1.449562
-6.106609 -13.858946 -1.449562
-7.6570813 -13.858946 -1.449562
-9.2075175 -13.858946 -1.449562
-10.758014 -13.858946 -1.449562
-12.30845 -13.858946 -1.449562
-13.858946 -13.858946 -1.449562
-15.409382 -13.858946 -1.449562
-16.959879 -13.858946 -1.449562
-18.510315 -13.858946 -1.449562
-20.060811 -13.858946 -1.449562
-21.611248 -13.858946 -1.449562
-23.161744 -13.858946 -1.449562
-24.71218 -13.858946 -1.449562
-26.262676 -13.858946 -1.449562
-27.813113 -13.858946 -1.449562
-29.363609 -13.858946 -1.449562
-30.919699 -13.858946 -1.449562
-1.449562 -15.409382 -1.449562
-3.0056825 -15.409382 -1.449562
-4.5561428 -15.409382 -1.449562
-6.106609 -15.409382 -1.449562
-7.6570813 -15.409382 -1.449562
-9.2075175 -15.409382 -1.449562
-10.758014 -15.409382 -1.449562
-12.30845 -15.409382 -1.449562
-13.858946 -15.409382 -1.449562
-15.409382 -15.409382 -1.449562
-16.959879 -15.409382 -1.449562
-18.510315 -15.409382 -1.449562
-20.060811 -15.409382 -1.449562
-21.611248 -15.409382 -1.449562
-23.161744 -15.409382 -1.449562
-24.71218 -15.409382 -1.449562
-26.262676 -15.409382 -1.449562
-27.813113 -15.409382 -1.449562
-29.363609 -15.409382 -1.449562
-30.919699 -15.409382 -1.449562
-1.449562 -16.959879 -1.449562
-3.0056825 -16.959879 -1.449562
-4.5561428 -16.959879 -1.449562
-6.106609 -16.959879 -1.449562
-7.6570813 -16.959879 -1.449562
-9.2075175 -16.959879 -1.449562
-10.758014 -16.959879 -1.449562
-12.30845 -16.959879 -1.449562
-13.858946 -16.959879 -1.449562
-15.409382 -16.959879 -1.449562
-16.959879 -16.959879 -1.449562
-18.510315 -16.959879 -1.449562
-20.060811 -16.959879 -1.449562
-21.611248 -16.959879 -1.449562
-23.161744 -16.959879 -1.449562
-24.71218 -16.959879 -1.449562
-26.262676 -16.959879 -1.449562
-27.813113 -16.959879 -1.449562
-29.363609 -16.959879 -1.449562
-30.919699 -16.959879 -1.449562
-1.449562 -18.510315 -1.449562
-3.0056825 -18.510315 -1.449562
-4.5561428 -18.510315 -1.449562
-6.106609 -18.510315 -1.449562
-7.6570813 -18.510315 -1.449562
-9.2075175 -18.510315 -1.449562
-10.758014 -18.510315 -1.449562
-12.30845 -18.510315 -1.449562
-13.858946 -18.510315 -1.449562
-15.409382 -18.510315 -1.449562
-16.959879 -18.510315 -1.449562
-18.510315 -18.510315 -1.449562
-20.060811 -18.510315 -1.449562
-21.611248 -18.510315 -1.449562
-23.161744 -18.510315 -1.449562
-24.71218 -18.510315 -1.449562
-26.262676 -18.510315 -1.449562
-27.813113 -18.510315 -1.449562
-29.363609 -18.510315 -1.449562
-30.919699 -18.510315 -1.449562
-1.449562 -20.060811 -1.449562
-3.0056825 -20.060811 -1.449562
-4.5561428 -20.060811 -1.449562
-6.106609 -20.060811 -1.449562
-7.6570813 -20.060811 -1.449562
-9.2075175 -20.060811 -1.449562
-10.758014 -20.060811 -1.449562
-12.30845 -20.060811 -1.449562
-13.858946 -20.060811 -1.449562
-15.409382 -20.060811 -1.449562
-16.959879 -20.060811 -1.449562
-18.510315 -20.060811 -1.449562
-20.060811 -20.060811 -1.449562
-21.611248 -20.060811 -1.449562
-23.161744 -20.060811 -1.449562
-24.71218 -20.060811 -1.449562
-26.262676 -20.060811 -1.449562
-27.813113 -20.060811 -1.449562
-29.363609 -20.060811 -1.449562
-30.919699 -20.060811 -1.449562
-1.449562 -21.611248 -1.449562
-3.0056825 -21.611248 -1.449562
-4.5561428 -21.611248 -1.449562
-6.106609 -21.611248 -1.449562
-7.6570813 -21.611248 -1.449562
-9.2075175 -21.611248 -1.449562
-10.758014 -21.611248 -1.449562
-12.30845 -21.611248 -1.449562
-13.858946 -21.611248 -1.449562
-15.409382 -21.611248 -1.449562
-16.959879 -21.611248 -1.449562
-18.510315 -21.611248 -1.449562
-20.060811 -21.611248 -1.449562
-21.611248 -21.611248 -1.449562
-23.161744 -21.611248 -1.449562
-24.71218 -21.611248 -1.449562
-26.262676 -21.611248 -1.449562
-27.813113 -21.611248 -1.449562
-29.363609 -21.611248 -1.449562
-30.919699 -21.611248 -1.449562
-1.449562 -23.161744 -1.449562
-3.0056825 -23.161744 -1.449562
-4.5561428 -23.161744 -1.449562
-6.106609 -23.161744 -1.449562
-7.6570813 -23.161744 -1.449562
-9.2075175 -23.161744 -1.449562
-10.758014 -23.161744 -1.449562
-12.30845 -23.161744 -1.449562
-13.858946 -23.161744 -1.449562
-15.409382 -23.161744 -1.449562
-16.959879 -23.161744 -1.449562
-18.510315 -23.161744 -1.449562
-20.060811 -23.161744 -1.449562
-21.611248 -23.161744 -1.449562
-23.161744 -23.161744 -1.449562
-24.71218 -23.161744 -1.449562
-26.262676 -23.161744 -1.449562
-27.813113 -23.161744 -1.449562
-29.363609 -23.161744 -1.449562
-30.919699 -23.161744 -1.449562
-1.449562 -24.71218 -1.449562
-3.0056825 -24.71218 -1.449562
-4.5561428 -24.71218 -1.449562
-6.106609 -24.71218 -1.449562
-7.6570813 -24.71218 -1.449562
-9.2075175 -24.71218 -1.449562
-10.758014 -24.71218 -1.449562
-12.30845 -24.71218 -1.449562
-13.858946 -24.71218 -1.449562
-15.409382 -24.71218 -1.449562
-16.959879 -24.71218 -1.449562
-18.510315 -24.71218 -1.449562
-20.060811 -24.71218 -1.449562
-21.611248 -24.71218 -1.449562
-23.161744 -24.71218 -1.449562
-24.71218 -24.71218 -1.449562
-26.262676 -24.71218 -1.449562
-27.813113 -24.71218 -1.449562
-29.363609 -24.71218 -1.449562
-30.919699 -24.71218 -1.449562
-1.449562 -26.262676 -1.449562
-3.0056825 -26.262676 -1.449562
-4.5561428 -26.262676 -1.449562
-6.106609 -26.262676 -1.449562
-7.6570813 -26.262676 -1.449562
-9.2075175 -26.262676 -1.449562
-10.758014 -26.262676 -1.449562
-12.30845 -26.262676 -1.449562
-13.858946 -26.262676 -1.449562
-15.409382 -26.262676 -1.449562
-16.959879 -26.262676 -1.449562
-18.510315 -26.262676 -1.449562
-20.060811 -26.262676 -1.449562
-21.611248 -26.262676 -1.449562
-23.161744 -26.262676 -1.449562
-24.71218 -26.262676 -1.449562
-26.262676 -26.262676 -1.449562
-27.813113 -26.262676 -1.449562
-29.363609 -26.262676 -1.449562
-30.919699 -26.262676 -1.449562
-1.449562 -27.813113 -1.449562
-3.0056825 -27.813113 -1.449562
-4.5561428 -27.813113 -1.449562
-6.106609 -27.813113 -1.449562
-7.6570813 -27.813113 -1.449562
-9.2075175 -27.813113 -1.449562
-10.758014 -27.813113 -1.449562
-12.30845 -27.813113 -1.449562
-13.858946 -27.813113 -1.449562
-15.409382 -27.813113 -1.449562
-16.959879 -27.813113 -1.449562
-18.510315 -27.813113 -1.449562
-20.060811 -27.813113 -1.449562
-21.611248 -27.813113 -1.449562
-23.161744 -27.813113 -1.449562
-24.71218 -27.813113 -1.449562
-26.262676 -27.813113 -1.449562
-27.813113 -27.813113 -1.449562
-29.363609 -27.813113 -1.449562
-30.919699 -27.813113 -1.449562
-1.449562 -29.363609 -1.449562
-3.0056825 -29.363609 -1.449562
-4.5561428 -29.363609 -1.449562
-6.106609 -29.363609 -1.449562
-7.6570813 -29.363609 -1.449562
-9.2075175 -29.363609 -1.449562
-10.758014 -29.363609 -1.449562
-12.30845 -29.363609 -1.449562
-13.858946 -29.363609 -1.449562
-15.409382 -29.363609 -1.449562
-16.959879 -29.363609 -1.449562
-18.510315 -29.363609 -1.449562
-20.060811 -29.363609 -1.449562
-21.611248 -29.363609 -1.449562
-23.161744 -29.363609 -1.449562
-24.71218 -29.363609 -1.449562
-26.262676 -29.363609 -1.449562
-27.813113 -29.363609 -1.449562
-29.363609 -29.363609 -1.449562
-30.919699 -29.363609 -1.449562
-1.449562 -30.919699 -1.449562
-3.0056825 -30.919699 -1.449562
-4.5561428 -30.919699 -1.449562
-6.106609 -30.919699 -1.449562
-7.6570813 -30.919699 -1.449562
-9.2075175 -30.919699 -1.449562
-10.758014 -30.919699 -1.449562
-12.30845 -30.919699 -1.449562
-13.858946 -30.919699 -1.449562
-15.409382 -30.919699 -1.449562
-16.959879 -30.919699 -1.449562
-18.510315 -30.919699 -1.449562
-20.060811 -30.919699 -1.449562
-21.611248 -30.919699 -1.449562
-23.161744 -30.919699 -1.449562
-24.71218 -30.919699 -1.449562
-26.262676 -30.919699 -1.449562
-27.813113 -30.919699 -1.449562
-29.363609 -30.919699 -1.449562
-30.919699 -30.919699 -1.449562
-1.449562 -1.449562 -3.0056825
-3.0056825 -1.449562 -3.0056825
-4.5561428 -1.449562 -3.0056825
-6.106609 -1.449562 -3.0056825
-7.6570813 -1.449562 -3.0056825
-9.2075175 -1.449562 -3.0056825
-10.758014 -1.449562 -3.0056825
-12.30845 -1.449562 -3.0056825
-13.858946 -1.449562 -3.0056825
-15.409382 -1.449562 -3.0056825
-16.959879 -1.449562 -3.0056825
-18.510315 -1.449562 -3.0056825
-20.060811 -1.449562 -3.0056825
-21.611248 -1.449562 -3.0056825
-23.161744 -1.449562 -3.0056825
-24.71218 -1.449562 -3.0056825
-26.262676 -1.449562 -3.0056825
-27.813113 -1.449562 -3.0056825
-29.363609 -1.449562 -3.0056825
-30.919699 -1.449562 -3.0056825
-1.449562 -3.0056825 -3.0056825
-3.0056825 -3.0056825 -3.0056825
-4.5561428 -3.0056825 -3.0056825
-6.106609 -3.0056825 -3.0056825
-7.6570813 -3.0056825 -3.0056825
-9.2075175 -3.0056825 -3.0056825
-10.758014 -3.0056825 -3.0056825
-12.30845 -3.0056825 -3.0056825
-13.858946 -3.0056825 -3.0056825
-15.409382 -3.0056825 -3.0056825
-16.959879 -3.0056825 -3.0056825
-18.510315 -3.0056825 -3.0056825
-20.060811 -3.0056825 -3.0056825
-21.611248 -3.0056825 -3.0056825
-23.161744 -3.0056825 -3.0056825
-24.71218 -3.0056825 -3.0056825
-26.262676 -3.0056825 -3.0056825
-27.813113 -3.0056825 -3.0056825
-29.363609 -3.0056825 -3.0056825