# vtk DataFile Version 4.0
hesp visualization file
ASCII
DATASET UNSTRUCTURED_GRID
POINTS 3000 double
0.11467691 0.11467691 0.11467691
2.2750431 0.11467691 0.11467691
4.4392934 0.11467691 0.11467691
6.6035521 0.11467691 0.11467691
8.7678192 0.11467691 0.11467691
10.932036 0.11467691 0.11467691
13.096337 0.11467691 0.11467691
15.260553 0.11467691 0.11467691
17.424854 0.11467691 0.11467691
19.589071 0.11467691 0.11467691
21.753371 0.11467691 0.11467691
23.917588 0.11467691 0.11467691
26.081889 0.11467691 0.11467691
28.246105 0.11467691 0.11467691
30.410406 0.11467691 0.11467691
32.574623 0.11467691 0.11467691
34.738923 0.11467691 0.11467691
36.90314 0.11467691 0.11467691
39.067441 0.11467691 0.11467691
41.227765 0.11467691 0.11467691
0.11467691 2.2750431 0.11467691
2.2750431 2.2750431 0.11467691
4.4392934 2.2750431 0.11467691
6.6035521 2.2750431 0.11467691
8.7678192 2.2750431 0.11467691
10.932036 2.2750431 0.11467691
13.096337 2.2750431 0.11467691
15.260553 2.2750431 0.11467691
17.424854 2.2750431 0.11467691
19.589071 2.2750431 0.11467691
21.753371 2.2750431 0.11467691
23.917588 2.2750431 0.11467691
26.081889 2.2750431 0.11467691
28.246105 2.2750431 0.11467691
30.410406 2.2750431 0.11467691
32.574623 2.2750431 0.11467691
34.738923 2.2750431 0.11467691
36.90314 2.2750431 0.11467691
39.067441 2.2750431 0.11467691
41.227765 2.2750431 0.11467691
0.11467691 4.4392934 0.11467691
2.2750431 4.4392934 0.11467691
4.4392934 4.4392934 0.11467691
6.6035521 4.4392934 0.11467691
8.7678192 4.4392934 0.11467691
10.932036 4.4392934 0.11467691
13.096337 4.4392934 0.11467691
15.260553 4.4392934 0.11467691
17.424854 4.4392934 0.11467691
19.589071 4.4392934 0.11467691
21.753371 4.4392934 0.11467691
23.917588 4.4392934 0.11467691
26.081889 4.4392934 0.11467691
28.246105 4.4392934 0.11467691
30.410406 4.4392934 0.11467691
32.574623 4.4392934 0.11467691
34.738923 4.4392934 0.11467691
36.90314 4.4392934 0.11467691
39.067441 4.4392934 0.11467691
41.227765 4.4392934 0.11467691
0.11467691 6.6035521 0.11467691
2.2750431 6.6035521 0.11467691
4.4392934 6.6035521 0.11467691
6.6035521 6.6035521 0.11467691
8.7678192 6.6035521 0.11467691
10.932036 6.6035521 0.11467691
13.096337 6.6035521 0.11467691
15.260553 6.6035521 0.11467691
17.424854 6.6035521 0.11467691
19.589071 6.6035521 0.11467691
21.753371 6.6035521 0.11467691
23.917588 6.6035521 0.11467691
26.081889 6.6035521 0.11467691
28.246105 6.6035521 0.11467691
30.410406 6.6035521 0.11467691
32.574623 6.6035521 0.11467691
34.738923 6.6035521 0.11467691
36.90314 6.6035521 0.11467691
39.067441 6.6035521 0.11467691
41.227765 6.6035521 0.11467691
0.11467691 8.7678192 0.11467691
2.2750431 8.7678192 0.11467691
4.4392934 8.7678192 0.11467691
6.6035521 8.7678192 0.11467691
8.7678192 8.7678192 0.11467691
10.932036 8.7678192 0.11467691
13.096337 8.7678192 0.11467691
15.260553 8.7678192 0.11467691
17.424854 8.7678192 0.11467691
19.589071 8.7678192 0.11467691
21.753371 8.7678192 0.11467691
23.917588 8.7678192 0.11467691
26.081889 8.7678192 0.11467691
28.246105 8.7678192 0.11467691
30.410406 8.7678192 0.11467691
32.574623 8.7678192 0.11467691
34.738923 8.7678192 0.11467691
36.90314 8.7678192 0.11467691
39.067441 8.7678192 0.11467691
41.227765 8.7678192 0.11467691
0.11467691 10.932036 0.11467691
2.2750431 10.932036 0.11467691
4.4392934 10.932036 0.11467691
6.6035521 10.932036 0.11467691
8.7678192 10.932036 0.11467691
10.932036 10.932036 0.11467691
13.096337 10.932036 0.11467691
15.260553 10.932036 0.11467691
17.424854 10.932036 0.11467691
19.589071 10.932036 0.11467691
21.753371 10.932036 0.11467691
23.917588 10.932036 0.11467691
26.081889 10.932036 0.11467691
28.246105 10.932036 0.11467691
30.410406 10.932036 0.11467691
32.574623 10.932036 0.11467691
34.738923 10.932036 0.11467691
36.90314 10.932036 0.11467691
39.067441 10.932036 0.11467691
41.227765 10.932036 0.11467691
0.11467691 13.096337 0.11467691
2.2750431 13.096337 0.11467691
4.4392934 13.096337 0.11467691
6.6035521 13.096337 0.11467691
8.7678192 13.096337 0.11467691
10.932036 13.096337 0.11467691
13.096337 13.096337 0.11467691
15.260553 13.096337 0.11467691
17.424854 13.096337 0.11467691
19.589071 13.096337 0.11467691
21.753371 13.096337 0.11467691
23.917588 13.096337 0.11467691
26.081889 13.096337 0.11467691
28.246105 13.096337 0.11467691
30.410406 13.096337 0.11467691
32.574623 13.096337 0.11467691
34.738923 13.096337 0.11467691
36.90314 13.096337 0.11467691
39.067441 13.096337 0.11467691
41.227765 13.096337 0.11467691
0.11467691 15.260553 0.11467691
2.2750431 15.260553 0.11467691
4.4392934 15.260553 0.11467691
6.6035521 15.260553 0.11467691
8.7678192 15.260553 0.11467691
10.932036 15.260553 0.11467691
13.096337 15.260553 0.11467691
15.260553 15.260553 0.11467691
17.424854 15.260553 0.11467691
19.589071 15.260553 0.11467691
21.753371 15.260553 0.11467691
23.917588 15.260553 0.11467691
26.081889 15.260553 0.11467691
28.246105 15.260553 0.11467691
30.410406 15.260553 0.11467691
32.574623 15.260553 0.11467691
34.738923 15.260553 0.11467691
36.90314 15.260553 0.11467691
39.067441 15.260553 0.11467691
41.227765 15.260553 0.11467691
0.11467691 17.424854 0.11467691
2.2750431 17.424854 0.11467691
4.4392934 17.424854 0.11467691
6.6035521 17.424854 0.11467691
8.7678192 17.424854 0.11467691
10.932036 17.424854 0.11467691
13.096337 17.424854 0.11467691
15.260553 17.424854 0.11467691
17.424854 17.424854 0.11467691
19.589071 17.424854 0.11467691
21.753371 17.424854 0.11467691
23.917588 17.424854 0.11467691
26.081889 17.424854 0.11467691
28.246105 17.424854 0.11467691
30.410406 17.424854 0.11467691
32.574623 17.424854 0.11467691
34.738923 17.424854 0.11467691
36.90314 17.424854 0.11467691
39.067441 17.424854 0.11467691
41.227765 17.424854 0.11467691
0.11467691 19.589071 0.11467691
2.2750431 19.589071 0.11467691
4.4392934 19.589071 0.11467691
6.6035521 19.589071 0.11467691
8.7678192 19.589071 0.11467691
10.932036 19.589071 0.11467691
13.096337 19.589071 0.11467691
15.260553 19.589071 0.11467691
17.424854 19.589071 0.11467691
19.589071 19.589071 0.11467691
21.753371 19.589071 0.11467691
23.917588 19.589071 0.11467691
26.081889 19.589071 0.11467691
28.246105 19.589071 0.11467691
30.410406 19.589071 0.11467691
32.574623 19.589071 0.11467691
34.738923 19.589071 0.11467691
36.90314 19.589071 0.11467691
39.067441 19.589071 0.11467691
41.227765 19.589071 0.11467691
0.11467691 21.753371 0.11467691
2.2750431 21.753371 0.11467691
4.4392934 21.753371 0.11467691
6.6035521 21.753371 0.11467691
8.7678192 21.753371 0.11467691
10.932036 21.753371 0.11467691
13.096337 21.753371 0.11467691
15.260553 21.753371 0.11467691
17.424854 21.753371 0.11467691
19.589071 21.753371 0.11467691
21.753371 21.753371 0.11467691
23.917588 21.753371 0.11467691
26.081889 21.753371 0.11467691
28.246105 21.753371 0.11467691
30.410406 21.753371 0.11467691
32.574623 21.753371 0.11467691
34.738923 21.753371 0.11467691
36.90314 21.753371 0.11467691
39.067441 21.753371 0.11467691
41.227765 21.753371 0.11467691
0.11467691 23.917588 0.11467691
2.2750431 23.917588 0.11467691
4.4392934 23.917588 0.11467691
6.6035521 23.917588 0.11467691
8.7678192 23.917588 0.11467691
10.932036 23.917588 0.11467691
13.096337 23.917588 0.11467691
15.260553 23.917588 0.11467691
17.424854 23.917588 0.11467691
19.589071 23.917588 0.11467691
21.753371 23.917588 0.11467691
23.917588 23.917588 0.11467691
26.081889 23.917588 0.11467691
28.246105 23.917588 0.11467691
30.410406 23.917588 0.11467691
32.574623 23.917588 0.11467691
34.738923 23.917588 0.11467691
36.90314 23.917588 0.11467691
39.067441 23.917588 0.11467691
41.227765 23.917588 0.11467691
0.11467691 26.081889 0.11467691
2.2750431 26.081889 0.11467691
4.4392934 26.081889 0.11467691
6.6035521 26.081889 0.11467691
8.7678192 26.081889 0.11467691
10.932036 26.081889 0.11467691
13.096337 26.081889 0.11467691
15.260553 26.081889 0.11467691
17.424854 26.081889 0.11467691
19.589071 26.081889 0.11467691
21.753371 26.081889 0.11467691
23.917588 26.081889 0.11467691
26.081889 26.081889 0.11467691
28.246105 26.081889 0.11467691
30.410406 26.081889 0.11467691
32.574623 26.081889 0.11467691
34.738923 26.081889 0.11467691
36.90314 26.081889 0.11467691
39.067441 26.081889 0.11467691
41.227765 26.081889 0.11467691
0.11467691 28.246105 0.11467691
2.2750431 28.246105 0.11467691
4.4392934 28.246105 0.11467691
6.6035521 28.246105 0.11467691
8.7678192 28.246105 0.11467691
10.932036 28.246105 0.11467691
13.096337 28.246105 0.11467691
15.260553 28.246105 0.11467691
17.424854 28.246105 0.11467691
19.589071 28.246105 0.11467691
21.753371 28.246105 0.11467691
23.917588 28.246105 0.11467691
26.081889 28.246105 0.11467691
28.246105 28.246105 0.11467691
30.410406 28.246105 0.11467691
32.574623 28.246105 0.11467691
34.738923 28.246105 0.11467691
36.90314 28.246105 0.11467691
39.067441 28.246105 0.11467691
41.227765 28.246105 0.11467691
0.11467691 30.410406 0.11467691
2.2750431 30.410406 0.11467691
4.4392934 30.410406 0.11467691
6.6035521 30.410406 0.11467691
8.7678192 30.410406 0.11467691
10.932036 30.410406 0.11467691
13.096337 30.410406 0.11467691
15.260553 30.410406 0.11467691
17.424854 30.410406 0.11467691
19.589071 30.410406 0.11467691
21.753371 30.410406 0.11467691
23.917588 30.410406 0.11467691
26.081889 30.410406 0.11467691
28.246105 30.410406 0.11467691
30.410406 30.410406 0.11467691
32.574623 30.410406 0.11467691
34.738923 30.410406 0.11467691
36.90314 30.410406 0.11467691
39.067441 30.410406 0.11467691
41.227765 30.410406 0.11467691
0.11467691 32.574623 0.11467691
2.2750431 32.574623 0.11467691
4.4392934 32.574623 0.11467691
6.6035521 32.574623 0.11467691
8.7678192 32.574623 0.11467691
10.932036 32.574623 0.11467691
13.096337 32.574623 0.11467691
15.260553 32.574623 0.11467691
17.424854 32.574623 0.11467691
19.589071 32.574623 0.11467691
21.753371 32.574623 0.11467691
23.917588 32.574623 0.11467691
26.081889 32.574623 0.11467691
28.246105 32.574623 0.11467691
30.410406 32.574623 0.11467691
32.574623 32.574623 0.11467691
34.738923 32.574623 0.11467691
36.90314 32.574623 0.11467691
[...]
POINT_DATA 3000
SCALARS m double
LOOKUP_TABLE default
1
1
1
1
1
1
1
1
1
1
1
1
1
1
1
1
1
1
1
1
1
1
1
1
1
1
1
1
1
1
1
1
1
1
1
1
1
1
1
1
1
1
1
1
1
1
1
1
1
1
1
1
1
1
1
1
1
1
1
1
1
1
1
1
1
1
1
1
1
1
1
1
1
1
1
1
1
1
1
1
1
1
1
1
1
1
1
1
1
1
1
1
1
1
1
1
1
1
1
1
1
1
1
1
1
1
1
1
1
1
1
1
1
1
1
1
1
1
1
1
1
1
1
1
1
1
1
1
1
1
1
1
1
1
1
1
1
1
1
1
1
1
1
1
1
1
1
1
1
1
1
1
1
1
1
1
1
1
1
1
1
1
1
1
1
1
1
1
1
1
1
1
1
1
1
1
1
1
1
1
1
1
1
1
1
1
1
1
1
1
1
1
1
1
1
1
1
1
1
1
1
1
1
1
1
1
1
1
1
1
1
1
1
1
1
1
1
1
1
1
1
1
1
1
1
1
1
1
1
1
1
1
1
1
1
1
1
1
1
1
1
1
1
1
1
1
1
1
1
1
1
1
1
1
1
1
1
1
1
1
1
1
1
1
1
1
1
1
1
1
1
1
1
1
1
1
1
1
1
1
1
1
1
1
1
1
1
1
1
1
1
1
1
1
1
1
1
1
1
1
1
1
1
1
1
1
1
1
1
1
1
1
1
1
1
1
1
1
1
1
1
1
1
1
1
1
1
1
1
1
1
1
1
1
1
1
1
1
1
1
1
1
1
1
1
1
1
1
1
1
1
1
1
1
1
1
1
1
1
1
1
1
1
1
1
1
1
1
1
1
1
1
1
1
1
1
1
1
1
1
1
1
1
1
1
1
1
1
1
1
1
1
1
1
1
1
1
1
1
1
1
1
1
1
1
1
1
1
1
1
1
1
1
1
1
1
1
1
1
1
1
1
1
1
1
1
1
1
1
1
1
1
1
1
1
1
1
1
1
1
1
1
1
1
1
1
1
1
1
1
1
1
1
1
1
1
1
1
1
1
1
1
1
1
1
1
1
1
1
1
1
1
1
1
1
1
1
1
1
1
1
1
1
1
1
1
1
1
1
1
1
1
1
1
1
1
1
1
1
1
1
1
1
1
1
1
1
1
1
1
1
1
1
1
1
1
1
1
1
1
1
1
1
1
1
1
1
1
1
1
1
1
1
1
1
1
1
1
1
1
1
1
1
1
1
1
1
1
1
1
1
1
1
1
1
1
1
1
1
1
1
1
1
1
1
1
1
1
1
1
1
1
1
1
1
1
1
1
1
1
1
1
1
1
1
1
1
1
1
1
1
1
1
1
1
1
1
1
1
1
1
1
1
1
1
1
1
1
1
1
1
1
1
1
1
1
1
1
1
1
1
1
1
1
1
1
1
1
1
1
1
1
1
1
1
1
1
1
1
1
1
1
1
1
1
1
1
1
1
1
1
1
1
1
1
1
1
1
1
1
1
1
1
1
1
1
1
1
1
1
1
1
1
1
1
1
1
1
1
1
1
1
1
1
1
1
1
1
1
1
1
1
1
1
1
1
1
1
1
1
1
1
1
1
1
1
1
1
1
1
1
1
1
1
1
1
1
1
1
1
1
1
1
1
1
1
1
1
1
1
1
1
1
1
1
1
1
1
1
1
1
1
1
1
1
1
1
1
1
1
1
1
1
1
1
1
1
1
1
1
1
1
1
1
1
1
1
1
1
1
1
1
1
1
1
1
1
1
1
1
1
1
1
1
1
1
1
1
1
1
1
1
1
1
1
1
1
1
1
1
1
1
1
1
1
1
1
1
1
1
1
1
1
1
1
1
1
1
1
1
1
1
1
1
1
1
1
1
1
1
1
1
1
1
1
1
1
1
1
1
1
1
1
1
1
1
1
1
1
1
1
1
1
1
1
1
1
1
1
1
1
1
1
1
1
1
1
1
1
1
1
1
1
1
1
1
1
1
1
1
1
1
1
1
1
1
1
1
1
1
1
1
1
1
1
1
1
1
1
1
1
1
1
1
1
1
1
1
1
1
1
1
1
1
1
1
1
1
1
1
1
1
1
1
1
1
1
1
1
1
1
1
1
1
1
1
1
1
1
1
1
1
1
1
1
1
1
1
1
1
1
1
1
1
1
1
1
1
1
1
1
1
1
1
1
1
1
1
1
1
1
1
1
1
1
1
1
1
1
1
1
1
1
1
1
1
1
1
1
1
1
1
1
1
1
1
1
1
1
1
1
1
1
1
1
1
1
1
1
1
1
1
1
1
1
1
1
1
1
1
1
1
1
1
1
1
1
1
1
1
1
1
1
1
1
1
1
1
1
1
1
1
1
1
1
1
1
1
1
1
1
1
1
1
1
1
1
1
1
1
1
1
1
1
1
1
1
1
1
1
1
1
1
1
1
1
1
1
1
1
1
1
1
1
1
1
1
1
1
1
1
1
1
1
1
1
1
1
1
1
1
1
1
1
1
1
1
1
1
1
1
1
1
1
1
1
1
1
1
1
1
1
1
1
1
1
1
1
1
1
1
1
1
1
1
1
1
1
1
1
1
1
1
1
1
1
1
1
1
1
1
1
1
1
1
1
1
1
1
1
1
1
1
1
1
1
1
1
1
1
1
1
1
1
1
1
1
1
1
1
1
1
1
1
1
1
1
1
1
1
1
1
1
1
1
1
1
1
1
1
1
1
1
1
1
1
1
1
1
1
1
1
1
1
1
1
1
1
1
1
1
1
1
1
1
1
1
1
1
1
1
1
1
1
1
1
1
1
1
1
1
1
1
1
1
1
1
1
1
1
1
1
1
1
1
1
1
1
1
1
1
1
1
1
1
1
1
1
1
1
1
1
1
1
1
1
1
1
1
1
1
1
1
1
1
1
1
1
1
1
1
1
1
1
1
1
1
1
1
1
1
1
1
1
1
1
1
1
1
1
1
1
1
1
1
1
1
1
1
1
1
1
1
1
1
1
1
1
1
1
1
1
1
1
1
1
1
1
1
1
1
1
1
1
1
1
1
1
1
1
1
1
1
1
1
1
1
1
1
1
1
1
1
1
1
1
1
1
1
1
1
1
1
1
1
1
1
1
1
1
1
1
1
1
1
1
1
1
1
1
1
1
1
1
1
1
1
1
1
1
1
1
1
1
1
1
1
1
1
1
1
1
1
1
1
1
1
1
1
1
1
1
1
1
1
1
1
1
1
1
1
1
1
1
1
1
1
1
1
1
1
1
1
1
1
1
1
1
1
1
1
1
1
1
1
1
1
1
1
1
1
1
1
1
1
1
1
1
1
1
1
1
1
1
1
1
1
1
1
1
1
1
1
1
1
1
1
1
1
1
1
1
1
1
1
1
1
1
1
1
1
1
1
1
1
1
1
1
1
1
1
1
1
1
1
1
1
1
1
1
1
1
1
1
1
1
1
1
1
1
1
1
1
1
1
1
1
1
1
1
1
1
1
1
1
1
1
1
1
1
1
1
1
1
1
1
1
1
1
1
1
1
1
1
1
1
1
1
1
1
1
1
1
1
1
1
1
1
1
1
1
1
1
1
1
1
1
1
1
1
1
1
1
1
1
1
1
1
1
1
1
1
1
1
1
1
1
1
1
1
1
1
1
1
1
1
1
1
1
1
1
1
1
1
1
1
1
1
1
1
1
1
1
1
1
1
1
1
1
1
1
1
1
1
1
1
1
1
1
1
1
1
1
1
1
1
1
1
1
1
1
1
1
1
1
1
1
1
1
1
1
1
1
1
1
1
1
1
1
1
1
1
1
1
1
1
1
1
1
1
1
1
1
1
1
1
1
1
1
1
1
1
1
1
1
1
1
1
1
1
1
1
1
1
1
1
1
1
1
1
1
1
1
1
1
1
1
1
1
1
1
1
1
1
1
1
1
1
1
1
1
1
1
1
1
1
1
1
1
1
1
1
1
1
1
1
1
1
1
1
1
1
1
1
1
1
1
1
1
1
1
1
1
1
1
1
1
1
1
1
1
1
1
1
1
1
1
1
1
1
1
1
1
1
1
1
1
1
1
1
1
1
1
1
1
1
1
1
1
1
1
1
1
1
1
1
1
1
1
1
1
1
1
1
1
1
1
1
1
1
1
1
1
1
1
1
1
1
1
1
1
1
1
1
1
1
1
1
1
1
1
1
1
1
1
1
1
1
1
1
1
1
1
1
1
1
1
1
1
1
1
1
1
1
1
1
1
1
1
1
1
1
1
1
1
1
1
1
1
1
1
1
1
1
1
1
1
1
1
1
1
1
1
1
1
1
1
1
1
1
1
1
1
1
1
1
1
1
1
1
1
1
1
1
1
1
1
1
1
1
1
1
1
1
1
1
1
1
1
1
1
1
1
1
1
1
1
1
1
1
1
1
1
1
1
1
1
1
1
1
1
1
1
1
1
1
1
1
1
1
1
1
1
1
1
1
1
1
1
1
1
1
1
1
1
1
1
1
1
1
1
1
1
1
1
1
1
1
1
1
1
1
1
1
1
1
1
1
1
1
1
1
1
1
1
1
1
1
1
1
1
1
1
1
1
1
1
1
1
1
1
1
1
1
1
1
1
1
1
1
1
1
1
1
1
1
1
1
1
1
1
1
1
1
1
1
1
1
1
1
1
1
1
1
1
1
1
1
1
1
1
1
1
1
1
1
1
1
1
1
1
1
1
1
1
1
1
1
1
1
1
1
1
1
1
1
1
1
1
1
1
1
1
1
1
1
1
1
1
1
1
1
1
1
1
1
1
1
1
1
1
1
1
1
1
1
1
1
1
1
1
1
1
1
1
1
1
1
1
1
1
1
1
1
1
1
1
1
1
1
1
1
1
1
1
1
1
1
1
1
1
1
1
1
1
1
1
1
1
1
1
1
1
1
1
1
1
1
1
1
1
1
1
1
1
1
1
1
1
1
1
1
1
1
1
1
1
1
1
1
1
1
1
1
1
1
1
1
1
1
1
1
1
1
1
1
1
1
1
1
1
1
1
1
1
1
1
1
1
1
1
1
1
1
1
1
1
1
1
1
1
1
1
1
1
1
1
1
1
1
1
1
1
1
1
1
1
1
1
1
1
1
1
1
1
1
1
1
1
1
1
1
1
1
1
1
1
1
1
1
1
1
1
1
1
1
1
1
1
1
1
1
1
1
1
1
1
1
1
1
1
1
1
1
1
1
1
1
1
1
1
1
1
1
1
1
1
1
1
1
1
1
1
1
1
1
1
1
1
1
1
1
1
1
1
1
1
1
1
1
1
1
1
1
1
1
1
1
1
1
1
1
1
1
1
1
1
1
1
1
1
1
1
1
1
1
1
1
1
1
1
1
1
1
1
1
1
1
1
1
1
1
1
1
1
1
1
1
1
1
1
1
1
1
1
1
1
1
1
1
1
1
1
1
1
1
1
1
1
1
1
1
1
1
1
1
1
1
1
1
1
1
1
1
1
1
1
1
1
1
1
1
1
1
1
1
1
1
1
1
1
1
1
1
1
1
1
1
1
1
1
1
1
1
1
1
1
1
1
1
1
1
1
1
1
1
1
1
1
1
1
1
1
1
1
1
1
1
1
1
1
1
1
1
1
1
1
1
1
1
1
1
1
1
1
1
1
1
1
1
1
1
1
1
1
1
1
1
1
1
1
1
1
1
1
1
1
1
1
1
1
1
1
1
1
1
1
1
1
1
1
1
1
1
1
1
1
1
1
1
1
1
1
1
1
1
1
1
1
1
1
1
1
1
1
1
1
1
1
1
1
1
1
1
1
1
1
1
1
1
1
1
1
1
1
1
1
1
1
1
1
1
1
1
1
1
1
1
1
1
1
1
1
1
1
1
1
1
1
1
1
1
1
1
1
1
1
1
1
1
1
1
1
1
1
1
1
1
1
1
1
1
1
1
1
1
1
1
1
1
1
1
1
1
1
1
1
1
1
1
1
1
1
1
1
1
1
1
1
1
1
1
1
1
1
1
1
1
1
1
1
1
1
1
1
1
1
1
1
1
1
1
1
1
1
1
1
1
1
1
1
1
1
1
1
1
1
1
1
1
1
1
1
1
1
1
1
1
1
1
1
1
1
1
1
1
1
1
1
1
1
1
1
1
1
1
1
1
1
1
1
1
1
1
1
1
1
1
1
1
1
1
1
1
1
1
1
1
1
1
1
1
1
1
1
1
1
1
1
1
1
1
1
1
1
1
1
1
1
1
1
1
1
1
1
1
1
1
1
1
1
1
1
1
1
1
1
1
1
1
1
1
1
1
1
1
1
1
1
1
1
1
1
1
1
1
1
1
1
1
1
1
1
1
1
1
1
1
1
1
1
1
1
1
1
1
1
1
1
1
1
1
1
1
1
1
1
1
1
1
1
1
1
1
1
1
1
1
1
1
1
1
1
1
1
1
1
1
1
1
1
1
1
1
1
1
1
1
1
1
1
1
1
1
1
1
1
1
1
1
1
1
1
1
1
1
1
1
1
1
1
1
1
1
1
1
1
1
1
1
1
1
1
1
1
1
1
1
1
1
1
1
1
1
1
1
1
1
1
1
1
1
1
1
1
1
1
1
1
1
1
1
1
1
1
1
1
1
1
1
1
1
1
1
1
1
1
1
1
1
1
1
1
1
1
1
1
1
1
1
1
1
1
1
1
1
1
1
1
1
1
1
1
1
1
1
1
1
1
1
1
1
1
1
1
1
1
1
1
1
1
1
1
1
1
1
1
1
1
1
1
1
1
1
1
1
1
1
1
1
VECTORS v double
-1.3104252 -1.3104252 -1.3104252
-2.7188942 -1.3104252 -1.3104252
-4.1214167 -1.3104252 -1.3104252
-5.5239446 -1.3104252 -1.3104252
-6.9264779 -1.3104252 -1.3104252
-8.3289787 -1.3104252 -1.3104252
-9.7315338 -1.3104252 -1.3104252
-11.134035 -1.3104252 -1.3104252
-12.53659 -1.3104252 -1.3104252
-13.93909 -1.3104252 -1.3104252
-15.341645 -1.3104252 -1.3104252
-16.744146 -1.3104252 -1.3104252
-18.146701 -1.3104252 -1.3104252
-19.549202 -1.3104252 -1.3104252
-20.951757 -1.3104252 -1.3104252
-22.354258 -1.3104252 -1.3104252
-23.756813 -1.3104252 -1.3104252
-25.159314 -1.3104252 -1.3104252
-26.561869 -1.3104252 -1.3104252
-27.970311 -1.3104252 -1.3104252
-1.3104252 -2.7188942 -1.3104252
-2.7188942 -2.7188942 -1.3104252
-4.1214167 -2.7188942 -1.3104252
-5.5239446 -2.7188942 -1.3104252
-6.9264779 -2.7188942 -1.3104252
-8.3289787 -2.7188942 -1.3104252
-9.7315338 -2.7188942 -1.3104252
-11.134035 -2.7188942 -1.3104252
-12.53659 -2.7188942 -1.3104252
-13.93909 -2.7188942 -1.3104252
-15.341645 -2.7188942 -1.3104252
-16.744146 -2.7188942 -1.3104252
-18.146701 -2.7188942 -1.3104252
-19.549202 -2.7188942 -1.3104252
-20.951757 -2.7188942 -1.3104252
-22.354258 -2.7188942 -1.3104252
-23.756813 -2.7188942 -1.3104252
-25.159314 -2.7188942 -1.3104252
-26.561869 -2.7188942 -1.3104252
-27.970311 -2.7188942 -1.3104252
-1.3104252 -4.1214167 -1.3104252
-2.7188942 -4.1214167 -1.3104252
-4.1214167 -4.1214167 -1.3104252
-5.5239446 -4.1214167 -1.3104252
-6.9264779 -4.1214167 -1.3104252
-8.3289787 -4.1214167 -1.3104252
-9.7315338 -4.1214167 -1.3104252
-11.134035 -4.1214167 -1.3104252
-12.53659 -4.1214167 -1.3104252
-13.93909 -4.1214167 -1.3104252
-15.341645 -4.1214167 -1.3104252
-16.744146 -4.1214167 -1.3104252
-18.146701 -4.1214167 -1.3104252
-19.549202 -4.1214167 -1.3104252
-20.951757 -4.1214167 -1.3104252
-22.354258 -4.1214167 -1.3104252
-23.756813 -4.1214167 -1.3104252
-25.159314 -4.1214167 -1.3104252
-26.561869 -4.1214167 -1.3104252
-27.970311 -4.1214167 -1.3104252
-1.3104252 -5.5239446 -1.3104252
-2.7188942 -5.5239446 -1.3104252
-4.1214167 -5.5239446 -1.3104252
-5.5239446 -5.5239446 -1.3104252
-6.9264779 -5.5239446 -1.3104252
-8.3289787 -5.5239446 -1.3104252
-9.7315338 -5.5239446 -1.3104252
-11.134035 -5.5239446 -1.3104252
-12.53659 -5.5239446 -1.3104252
-13.93909 -5.5239446 -1.3104252
-15.341645 -5.5239446 -1.3104252
-16.744146 -5.5239446 -1.3104252
-18.146701 -5.5239446 -1.3104252
-19.549202 -5.5239446 -1.3104252
-20.951757 -5.5239446 -1.3104252
-22.354258 -5.5239446 -1.3104252
-23.756813 -5.5239446 -1.3104252
-25.159314 -5.5239446 -1.3104252
-26.561869 -5.5239446 -1.3104252
-27.970311 -5.5239446 -1.3104252
-1.3104252 -6.9264779 -1.3104252
-2.7188942 -6.9264779 -1.3104252
-4.1214167 -6.9264779 -1.3104252
-5.5239446 -6.9264779 -1.3104252
-6.9264779 -6.9264779 -1.3104252
-8.3289787 -6.9264779 -1.3104252
-9.7315338 -6.9264779 -1.3104252
-11.134035 -6.9264779 -1.3104252
-12.53659 -6.9264779 -1.3104252
-13.93909 -6.9264779 -1.3104252
-15.341645 -6.9264779 -1.3104252
-16.744146 -6.9264779 -1.3104252
-18.146701 -6.9264779 -1.3104252
-19.549202 -6.9264779 -1.3104252
-20.951757 -6.9264779 -1.3104252
-22.354258 -6.9264779 -1.3104252
-23.756813 -6.9264779 -1.3104252
-25.159314 -6.9264779 -1.3104252
-26.561869 -6.9264779 -1.3104252
-27.970311 -6.9264779 -1.3104252
-1.3104252 -8.3289787 -1.3104252
-2.7188942 -8.3289787 -1.3104252
-4.1214167 -8.3289787 -1.3104252
-5.5239446 -8.3289787 -1.3104252
-6.9264779 -8.3289787 -1.3104252
-8.3289787 -8.3289787 -1.3104252
-9.7315338 -8.3289787 -1.3104252
-11.134035 -8.3289787 -1.3104252
-12.53659 -8.3289787 -1.3104252
-13.93909 -8.3289787 -1.3104252
-15.341645 -8.3289787 -1.3104252
-16.744146 -8.3289787 -1.3104252
-18.146701 -8.3289787 -1.3104252
-19.549202 -8.3289787 -1.3104252
-20.951757 -8.3289787 -1.3104252
-22.354258 -8.3289787 -1.3104252
-23.756813 -8.3289787 -1.3104252
-25.159314 -8.3289787 -1.3104252
-26.561869 -8.3289787 -1.3104252
-27.970311 -8.3289787 -1.3104252
-1.3104252 -9.7315338 -1.3104252
-2.7188942 -9.7315338 -1.3104252
-4.1214167 -9.7315338 -1.3104252
-5.5239446 -9.7315338 -1.3104252
-6.9264779 -9.7315338 -1.3104252
-8.3289787 -9.7315338 -1.3104252
-9.7315338 -9.7315338 -1.3104252
-11.134035 -9.7315338 -1.3104252
-12.53659 -9.7315338 -1.3104252
-13.93909 -9.7315338 -1.3104252
-15.341645 -9.7315338 -1.3104252
-16.744146 -9.7315338 -1.3104252
-18.146701 -9.7315338 -1.3104252
-19.549202 -9.7315338 -1.3104252
-20.951757 -9.7315338 -1.3104252
-22.354258 -9.7315338 -1.3104252
-23.756813 -9.7315338 -1.3104252
-25.159314 -9.7315338 -1.3104252
-26.561869 -9.7315338 -1.3104252
-27.970311 -9.7315338 -1.3104252
-1.3104252 -11.134035 -1.3104252
-2.7188942 -11.134035 -1.3104252
-4.1214167 -11.134035 -1.3104252
-5.5239446 -11.134035 -1.3104252
-6.9264779 -11.134035 -1.3104252
-8.3289787 -11.134035 -1.3104252
-9.7315338 -11.134035 -1.3104252
-11.134035 -11.134035 -1.3104252
-12.53659 -11.134035 -1.3104252
-13.93909 -11.134035 -1.3104252
-15.341645 -11.134035 -1.3104252
-16.744146 -11.134035 -1.3104252
-18.146701 -11.134035 -1.3104252
-19.549202 -11.134035 -1.3104252
-20.951757 -11.134035 -1.3104252
-22.354258 -11.134035 -1.3104252
-23.756813 -11.134035 -1.3104252
-25.159314 -11.134035 -1.3104252
-26.561869 -11.134035 -1.3104252
-27.970311 -11.134035 -1.3104252
-1.3104252 -12.53659 -1.3104252
-2.7188942 -12.53659 -1.3104252
-4.1214167 -12.53659 -1.3104252
-5.5239446 -12.53659 -1.3104252
-6.9264779 -12.53659 -1.3104252
-8.3289787 -12.53659 -1.3104252
-9.7315338 -12.53659 -1.3104252
-11.134035 -12.53659 -1.3104252
-12.53659 -12.53659 -1.3104252
-13.93909 -12.53659 -1.3104252
-15.341645 -12.53659 -1.3104252
-16.744146 -12.53659 -1.3104252
-18.146701 -12.53659 -1.3104252
-19.549202 -12.53659 -1.3104252
-20.951757 -12.53659 -1.3104252
-22.354258 -12.53659 -1.3104252
-23.756813 -12.53659 -1.3104252
-25.159314 -12.53659 -1.3104252
-26.561869 -12.53659 -1.3104252
-27.970311 -12.53659 -1.3104252
-1.3104252 -13.93909 -1.3104252
-2.7188942 -13.93909 -1.3104252
-4.1214167 -13.93909 -1.3104252
-5.5239446 -13.93909 -1.3104252
-6.9264779 -13.93909 -1.3104252
-8.3289787 -13.93909 -1.3104252
-9.7315338 -13.93909 -1.3104252
-11.134035 -13.93909 -1.3104252
-12.53659 -13.93909 -1.3104252
-13.93909 -13.93909 -1.3104252
-15.341645 -13.93909 -1.3104252
-16.744146 -13.93909 -1.3104252
-18.146701 -13.93909 -1.3104252
-19.549202 -13.93909 -1.3104252
-20.951757 -13.93909 -1.3104252
-22.354258 -13.93909 -1.3104252
-23.756813 -13.93909 -1.3104252
-25.159314 -13.93909 -1.3104252
-26.561869 -13.93909 -1.3104252
-27.970311 -13.93909 -1.3104252
-1.3104252 -15.341645 -1.3104252
-2.7188942 -15.341645 -1.3104252
-4.1214167 -15.341645 -1.3104252
-5.5239446 -15.341645 -1.3104252
-6.9264779 -15.341645 -1.3104252
-8.3289787 -15.341645 -1.3104252
-9.7315338 -15.341645 -1.3104252
-11.134035 -15.341645 -1.3104252
-12.53659 -15.341645 -1.3104252
-13.93909 -15.341645 -1.3104252
-15.341645 -15.341645 -1.3104252
-16.744146 -15.341645 -1.3104252
-18.146701 -15.341645 -1.3104252
-19.549202 -15.341645 -1.3104252
-20.951757 -15.341645 -1.3104252
-22.354258 -15.341645 -1.3104252
-23.756813 -15.341645 -1.3104252
-25.159314 -15.341645 -1.3104252
-26.561869 -15.341645 -1.3104252
-27.970311 -15.341645 -1.3104252
-1.3104252 -16.744146 -1.3104252
-2.7188942 -16.744146 -1.3104252
-4.1214167 -16.744146 -1.3104252
-5.5239446 -16.744146 -1.3104252
-6.9264779 -16.744146 -1.3104252
-8.3289787 -16.744146 -1.3104252
-9.7315338 -16.744146 -1.3104252
-11.134035 -16.744146 -1.3104252
-12.53659 -16.744146 -1.3104252
-13.93909 -16.744146 -1.3104252
-15.341645 -16.744146 -1.3104252
-16.744146 -16.744146 -1.3104252
-18.146701 -16.744146 -1.3104252
-19.549202 -16.744146 -1.3104252
-20.951757 -16.744146 -1.3104252
-22.354258 -16.744146 -1.3104252
-23.756813 -16.744146 -1.3104252
-25.159314 -16.744146 -1.3104252
-26.561869 -16.744146 -1.3104252
-27.970311 -16.744146 -1.3104252
-1.3104252 -18.146701 -1.3104252
-2.7188942 -18.146701 -1.3104252
-4.1214167 -18.146701 -1.3104252
-5.5239446 -18.146701 -1.3104252
-6.9264779 -18.146701 -1.3104252
-8.3289787 -18.146701 -1.3104252
-9.7315338 -18.146701 -1.3104252
-11.134035 -18.146701 -1.3104252
-12.53659 -18.146701 -1.3104252
-13.93909 -18.146701 -1.3104252
-15.341645 -18.146701 -1.3104252
-16.744146 -18.146701 -1.3104252
-18.146701 -18.146701 -1.3104252
-19.549202 -18.146701 -1.3104252
-20.951757 -18.146701 -1.3104252
-22.354258 -18.146701 -1.3104252
-23.756813 -18.146701 -1.3104252
-25.159314 -18.146701 -1.3104252
-26.561869 -18.146701 -1.3104252
-27.970311 -18.146701 -1.3104252
-1.3104252 -19.549202 -1.3104252
-2.7188942 -19.549202 -1.3104252
-4.1214167 -19.549202 -1.3104252
-5.5239446 -19.549202 -1.3104252
-6.9264779 -19.549202 -1.3104252
-8.3289787 -19.549202 -1.3104252
-9.7315338 -19.549202 -1.3104252
-11.134035 -19.549202 -1.3104252
-12.53659 -19.549202 -1.3104252
-13.93909 -19.549202 -1.3104252
-15.341645 -19.549202 -1.3104252
-16.744146 -19.549202 -1.3104252
-18.146701 -19.549202 -1.3104252
-19.549202 -19.549202 -1.3104252
-20.951757 -19.549202 -1.3104252
-22.354258 -19.549202 -1.3104252
-23.756813 -19.549202 -1.3104252
-25.159314 -19.549202 -1.3104252
-26.561869 -19.549202 -1.3104252
-27.970311 -19.549202 -1.3104252
-1.3104252 -20.951757 -1.3104252
-2.7188942 -20.951757 -1.3104252
-4.1214167 -20.951757 -1.3104252
-5.5239446 -20.951757 -1.3104252
-6.9264779 -20.951757 -1.3104252
-8.3289787 -20.951757 -1.3104252
-9.7315338 -20.951757 -1.3104252
-11.134035 -20.951757 -1.3104252
-12.53659 -20.951757 -1.3104252
-13.93909 -20.951757 -1.3104252
-15.341645 -20.951757 -1.3104252
-16.744146 -20.951757 -1.3104252
-18.146701 -20.951757 -1.3104252
-19.549202 -20.951757 -1.3104252
-20.951757 -20.951757 -1.3104252
-22.354258 -20.951757 -1.3104252
-23.756813 -20.951757 -1.3104252
-25.159314 -20.951757 -1.3104252
-26.561869 -20.951757 -1.3104252
-27.970311 -20.951757 -1.3104252
-1.3104252 -22.354258 -1.3104252
-2.7188942 -22.354258 -1.3104252
-4.1214167 -22.354258 -1.3104252
-5.5239446 -22.354258 -1.3104252
-6.9264779 -22.354258 -1.3104252
-8.3289787 -22.354258 -1.3104252
-9.7315338 -22.354258 -1.3104252
-11.134035 -22.354258 -1.3104252
-12.53659 -22.354258 -1.3104252
-13.93909 -22.354258 -1.3104252
-15.341645 -22.354258 -1.3104252
-16.744146 -22.354258 -1.3104252
-18.146701 -22.354258 -1.3104252
-19.549202 -22.354258 -1.3104252
-20.951757 -22.354258 -1.3104252
-22.354258 -22.354258 -1.3104252
-23.756813 -22.354258 -1.3104252
-25.159314 -22.354258 -1.3104252
-26.561869 -22.354258 -1.3104252
-27.970311 -22.354258 -1.3104252
-1.3104252 -23.756813 -1.3104252
-2.7188942 -23.756813 -1.3104252
-4.1214167 -23.756813 -1.3104252
-5.5239446 -23.756813 -1.3104252
-6.9264779 -23.756813 -1.3104252
-8.3289787 -23.756813 -1.3104252
-9.7315338 -23.756813 -1.3104252
-11.134035 -23.756813 -1.3104252
-12.53659 -23.756813 -1.3104252
-13.93909 -23.756813 -1.3104252
-15.341645 -23.756813 -1.3104252
-16.744146 -23.756813 -1.3104252
-18.146701 -23.756813 -1.3104252
-19.549202 -23.756813 -1.3104252
-20.951757 -23.756813 -1.3104252
-22.354258 -23.756813 -1.3104252
-23.756813 -23.756813 -1.3104252
-25.159314 -23.756813 -1.3104252
-26.561869 -23.756813 -1.3104252
-27.970311 -23.756813 -1.3104252
-1.3104252 -25.159314 -1.3104252
-2.7188942 -25.159314 -1.3104252
-4.1214167 -25.159314 -1.3104252
-5.5239446 -25.159314 -1.3104252
-6.9264779 -25.159314 -1.3104252
-8.3289787 -25.159314 -1.3104252
-9.7315338 -25.159314 -1.3104252
-11.134035 -25.159314 -1.3104252
-12.53659 -25.159314 -1.3104252
-13.93909 -25.159314 -1.3104252
-15.341645 -25.159314 -1.3104252
-16.744146 -25.159314 -1.3104252
-18.146701 -25.159314 -1.3104252
-19.549202 -25.159314 -1.3104252
-20.951757 -25.159314 -1.3104252
-22.354258 -25.159314 -1.3104252
-23.756813 -25.159314 -1.3104252
-25.159314 -25.159314 -1.3104252
-26.561869 -25.159314 -1.3104252
-27.970311 -25.159314 -1.3104252
-1.3104252 -26.561869 -1.3104252
-2.7188942 -26.561869 -1.3104252
-4.1214167 -26.561869 -1.3104252
-5.5239446 -26.561869 -1.3104252
-6.9264779 -26.561869 -1.3104252
-8.3289787 -26.561869 -1.3104252
-9.7315338 -26.561869 -1.3104252
-11.134035 -26.561869 -1.3104252
-12.53659 -26.561869 -1.3104252
-13.93909 -26.561869 -1.3104252
-15.341645 -26.561869 -1.3104252
-16.744146 -26.561869 -1.3104252
-18.146701 -26.561869 -1.3104252
-19.549202 -26.561869 -1.3104252
-20.951757 -26.561869 -1.3104252
-22.354258 -26.561869 -1.3104252
-23.756813 -26.561869 -1.3104252
-25.159314 -26.561869 -1.3104252
-26.561869 -26.561869 -1.3104252
-27.970311 -26.561869 -1.3104252
-1.3104252 -27.970311 -1.3104252
-2.7188942 -27.970311 -1.3104252
-4.1214167 -27.970311 -1.3104252
-5.5239446 -27.970311 -1.3104252
-6.9264779 -27.970311 -1.3104252
-8.3289787 -27.970311 -1.3104252
-9.7315338 -27.970311 -1.3104252
-11.134035 -27.970311 -1.3104252
-12.53659 -27.970311 -1.3104252
-13.93909 -27.970311 -1.3104252
-15.341645 -27.970311 -1.3104252
-16.744146 -27.970311 -1.3104252
-18.146701 -27.970311 -1.3104252
-19.549202 -27.970311 -1.3104252
-20.951757 -27.970311 -1.3104252
-22.354258 -27.970311 -1.3104252
-23.756813 -27.970311 -1.3104252
-25.159314 -27.970311 -1.3104252
-26.561869 -27.970311 -1.3104252
-27.970311 -27.970311 -1.3104252
-1.3104252 -1.3104252 -2.7188942
-2.7188942 -1.3104252 -2.7188942
-4.1214167 -1.3104252 -2.7188942
-5.5239446 -1.3104252 -2.7188942
-6.9264779 -1.3104252 -2.7188942
-8.3289787 -1.3104252 -2.7188942
-9.7315338 -1.3104252 -2.7188942
-11.134035 -1.3104252 -2.7188942
-12.53659 -1.3104252 -2.7188942
-13.93909 -1.3104252 -2.7188942
-15.341645 -1.3104252 -2.7188942
-16.744146 -1.3104252 -2.7188942
-18.146701 -1.3104252 -2.7188942
-19.549202 -1.3104252 -2.7188942
-20.951757 -1.3104252 -2.7188942
-22.354258 -1.3104252 -2.7188942
-23.756813 -1.3104252 -2.7188942
-25.159314 -1.3104252 -2.7188942
-26.561869 -1.3104252 -2.7188942
-27.970311 -1.3104252 -2.7188942
-1.3104252 -2.7188942 -2.7188942
-2.7188942 -2.7188942 -2.7188942
-4.1214167 -2.7188942 -2.7188942
-5.5239446 -2.7188942 -2.7188942