# vtk DataFile Version 4.0
hesp visualization file
ASCII
DATASET UNSTRUCTURED_GRID
POINTS 3000 double
0.14047707 0.14047707 0.14047707
2.3285792 0.14047707 0.14047707
4.5204457 0.14047707 0.14047707
6.7123207 0.14047707 0.14047707
8.9042042 0.14047707 0.14047707
11.096037 0.14047707 0.14047707
13.287954 0.14047707 0.14047707
15.479787 0.14047707 0.14047707
17.671704 0.14047707 0.14047707
19.863537 0.14047707 0.14047707
22.055454 0.14047707 0.14047707
24.247287 0.14047707 0.14047707
26.439204 0.14047707 0.14047707
28.631037 0.14047707 0.14047707
30.822954 0.14047707 0.14047707
33.014787 0.14047707 0.14047707
35.206704 0.14047707 0.14047707
37.398537 0.14047707 0.14047707
39.590454 0.14047707 0.14047707
41.778514 0.14047707 0.14047707
0.14047707 2.3285792 0.14047707
2.3285792 2.3285792 0.14047707
4.5204457 2.3285792 0.14047707
6.7123207 2.3285792 0.14047707
8.9042042 2.3285792 0.14047707
11.096037 2.3285792 0.14047707
13.287954 2.3285792 0.14047707
15.479787 2.3285792 0.14047707
17.671704 2.3285792 0.14047707
19.863537 2.3285792 0.14047707
22.055454 2.3285792 0.14047707
24.247287 2.3285792 0.14047707
26.439204 2.3285792 0.14047707
28.631037 2.3285792 0.14047707
30.822954 2.3285792 0.14047707
33.014787 2.3285792 0.14047707
35.206704 2.3285792 0.14047707
37.398537 2.3285792 0.14047707
39.590454 2.3285792 0.14047707
41.778514 2.3285792 0.14047707
0.14047707 4.5204457 0.14047707
2.3285792 4.5204457 0.14047707
4.5204457 4.5204457 0.14047707
6.7123207 4.5204457 0.14047707
8.9042042 4.5204457 0.14047707
11.096037 4.5204457 0.14047707
13.287954 4.5204457 0.14047707
15.479787 4.5204457 0.14047707
17.671704 4.5204457 0.14047707
19.863537 4.5204457 0.14047707
22.055454 4.5204457 0.14047707
24.247287 4.5204457 0.14047707
26.439204 4.5204457 0.14047707
28.631037 4.5204457 0.14047707
30.822954 4.5204457 0.14047707
33.014787 4.5204457 0.14047707
35.206704 4.5204457 0.14047707
37.398537 4.5204457 0.14047707
39.590454 4.5204457 0.14047707
41.778514 4.5204457 0.14047707
0.14047707 6.7123207 0.14047707
2.3285792 6.7123207 0.14047707
4.5204457 6.7123207 0.14047707
6.7123207 6.7123207 0.14047707
8.9042042 6.7123207 0.14047707
11.096037 6.7123207 0.14047707
13.287954 6.7123207 0.14047707
15.479787 6.7123207 0.14047707
17.671704 6.7123207 0.14047707
19.863537 6.7123207 0.14047707
22.055454 6.7123207 0.14047707
24.247287 6.7123207 0.14047707
26.439204 6.7123207 0.14047707
28.631037 6.7123207 0.14047707
30.822954 6.7123207 0.14047707
33.014787 6.7123207 0.14047707
35.206704 6.7123207 0.14047707
37.398537 6.7123207 0.14047707
39.590454 6.7123207 0.14047707
41.778514 6.7123207 0.14047707
0.14047707 8.9042042 0.14047707
2.3285792 8.9042042 0.14047707
4.5204457 8.9042042 0.14047707
6.7123207 8.9042042 0.14047707
8.9042042 8.9042042 0.14047707
11.096037 8.9042042 0.14047707
13.287954 8.9042042 0.14047707
15.479787 8.9042042 0.14047707
17.671704 8.9042042 0.14047707
19.863537 8.9042042 0.14047707
22.055454 8.9042042 0.14047707
24.247287 8.9042042 0.14047707
26.439204 8.9042042 0.14047707
28.631037 8.9042042 0.14047707
30.822954 8.9042042 0.14047707
33.014787 8.9042042 0.14047707
35.206704 8.9042042 0.14047707
37.398537 8.9042042 0.14047707
39.590454 8.9042042 0.14047707
41.778514 8.9042042 0.14047707
0.14047707 11.096037 0.14047707
2.3285792 11.096037 0.14047707
4.5204457 11.096037 0.14047707
6.7123207 11.096037 0.14047707
8.9042042 11.096037 0.14047707
11.096037 11.096037 0.14047707
13.287954 11.096037 0.14047707
15.479787 11.096037 0.14047707
17.671704 11.096037 0.14047707
19.863537 11.096037 0.14047707
22.055454 11.096037 0.14047707
24.247287 11.096037 0.14047707
26.439204 11.096037 0.14047707
28.631037 11.096037 0.14047707
30.822954 11.096037 0.14047707
33.014787 11.096037 0.14047707
35.206704 11.096037 0.14047707
37.398537 11.096037 0.14047707
39.590454 11.096037 0.14047707
41.778514 11.096037 0.14047707
0.14047707 13.287954 0.14047707
2.3285792 13.287954 0.14047707
4.5204457 13.287954 0.14047707
6.7123207 13.287954 0.14047707
8.9042042 13.287954 0.14047707
11.096037 13.287954 0.14047707
13.287954 13.287954 0.14047707
15.479787 13.287954 0.14047707
17.671704 13.287954 0.14047707
19.863537 13.287954 0.14047707
22.055454 13.287954 0.14047707
24.247287 13.287954 0.14047707
26.439204 13.287954 0.14047707
28.631037 13.287954 0.14047707
30.822954 13.287954 0.14047707
33.014787 13.287954 0.14047707
35.206704 13.287954 0.14047707
37.398537 13.287954 0.14047707
39.590454 13.287954 0.14047707
41.778514 13.287954 0.14047707
0.14047707 15.479787 0.14047707
2.3285792 15.479787 0.14047707
4.5204457 15.479787 0.14047707
6.7123207 15.479787 0.14047707
8.9042042 15.479787 0.14047707
11.096037 15.479787 0.14047707
13.287954 15.479787 0.14047707
15.479787 15.479787 0.14047707
17.671704 15.479787 0.14047707
19.863537 15.479787 0.14047707
22.055454 15.479787 0.14047707
24.247287 15.479787 0.14047707
26.439204 15.479787 0.14047707
28.631037 15.479787 0.14047707
30.822954 15.479787 0.14047707
33.014787 15.479787 0.14047707
35.206704 15.479787 0.14047707
37.398537 15.479787 0.14047707
39.590454 15.479787 0.14047707
41.778514 15.479787 0.14047707
0.14047707 17.671704 0.14047707
2.3285792 17.671704 0.14047707
4.5204457 17.671704 0.14047707
6.7123207 17.671704 0.14047707
8.9042042 17.671704 0.14047707
11.096037 17.671704 0.14047707
13.287954 17.671704 0.14047707
15.479787 17.671704 0.14047707
17.671704 17.671704 0.14047707
19.863537 17.671704 0.14047707
22.055454 17.671704 0.14047707
24.247287 17.671704 0.14047707
26.439204 17.671704 0.14047707
28.631037 17.671704 0.14047707
30.822954 17.671704 0.14047707
33.014787 17.671704 0.14047707
35.206704 17.671704 0.14047707
37.398537 17.671704 0.14047707
39.590454 17.671704 0.14047707
41.778514 17.671704 0.14047707
0.14047707 19.863537 0.14047707
2.3285792 19.863537 0.14047707
4.5204457 19.863537 0.14047707
6.7123207 19.863537 0.14047707
8.9042042 19.863537 0.14047707
11.096037 19.863537 0.14047707
13.287954 19.863537 0.14047707
15.479787 19.863537 0.14047707
17.671704 19.863537 0.14047707
19.863537 19.863537 0.14047707
22.055454 19.863537 0.14047707
24.247287 19.863537 0.14047707
26.439204 19.863537 0.14047707
28.631037 19.863537 0.14047707
30.822954 19.863537 0.14047707
33.014787 19.863537 0.14047707
35.206704 19.863537 0.14047707
37.398537 19.863537 0.14047707
39.590454 19.863537 0.14047707
41.778514 19.863537 0.14047707
0.14047707 22.055454 0.14047707
2.3285792 22.055454 0.14047707
4.5204457 22.055454 0.14047707
6.7123207 22.055454 0.14047707
8.9042042 22.055454 0.14047707
11.096037 22.055454 0.14047707
13.287954 22.055454 0.14047707
15.479787 22.055454 0.14047707
17.671704 22.055454 0.14047707
19.863537 22.055454 0.14047707
22.055454 22.055454 0.14047707
24.247287 22.055454 0.14047707
26.439204 22.055454 0.14047707
28.631037 22.055454 0.14047707
30.822954 22.055454 0.14047707
33.014787 22.055454 0.14047707
35.206704 22.055454 0.14047707
37.398537 22.055454 0.14047707
39.590454 22.055454 0.14047707
41.778514 22.055454 0.14047707
0.14047707 24.247287 0.14047707
2.3285792 24.247287 0.14047707
4.5204457 24.247287 0.14047707
6.7123207 24.247287 0.14047707
8.9042042 24.247287 0.14047707
11.096037 24.247287 0.14047707
13.287954 24.247287 0.14047707
15.479787 24.247287 0.14047707
17.671704 24.247287 0.14047707
19.863537 24.247287 0.14047707
22.055454 24.247287 0.14047707
24.247287 24.247287 0.14047707
26.439204 24.247287 0.14047707
28.631037 24.247287 0.14047707
30.822954 24.247287 0.14047707
33.014787 24.247287 0.14047707
35.206704 24.247287 0.14047707
37.398537 24.247287 0.14047707
39.590454 24.247287 0.14047707
41.778514 24.247287 0.14047707
0.14047707 26.439204 0.14047707
2.3285792 26.439204 0.14047707
4.5204457 26.439204 0.14047707
6.7123207 26.439204 0.14047707
8.9042042 26.439204 0.14047707
11.096037 26.439204 0.14047707
13.287954 26.439204 0.14047707
15.479787 26.439204 0.14047707
17.671704 26.439204 0.14047707
19.863537 26.439204 0.14047707
22.055454 26.439204 0.14047707
24.247287 26.439204 0.14047707
26.439204 26.439204 0.14047707
28.631037 26.439204 0.14047707
30.822954 26.439204 0.14047707
33.014787 26.439204 0.14047707
35.206704 26.439204 0.14047707
37.398537 26.439204 0.14047707
39.590454 26.439204 0.14047707
41.778514 26.439204 0.14047707
0.14047707 28.631037 0.14047707
2.3285792 28.631037 0.14047707
4.5204457 28.631037 0.14047707
6.7123207 28.631037 0.14047707
8.9042042 28.631037 0.14047707
11.096037 28.631037 0.14047707
13.287954 28.631037 0.14047707
15.479787 28.631037 0.14047707
17.671704 28.631037 0.14047707
19.863537 28.631037 0.14047707
22.055454 28.631037 0.14047707
24.247287 28.631037 0.14047707
26.439204 28.631037 0.14047707
28.631037 28.631037 0.14047707
30.822954 28.631037 0.14047707
33.014787 28.631037 0.14047707
35.206704 28.631037 0.14047707
37.398537 28.631037 0.14047707
39.590454 28.631037 0.14047707
41.778514 28.631037 0.14047707
0.14047707 30.822954 0.14047707
2.3285792 30.822954 0.14047707
4.5204457 30.822954 0.14047707
6.7123207 30.822954 0.14047707
8.9042042 30.822954 0.14047707
11.096037 30.822954 0.14047707
13.287954 30.822954 0.14047707
15.479787 30.822954 0.14047707
17.671704 30.822954 0.14047707
19.863537 30.822954 0.14047707
22.055454 30.822954 0.14047707
24.247287 30.822954 0.14047707
26.439204 30.822954 0.14047707
28.631037 30.822954 0.14047707
30.822954 30.822954 0.14047707
33.014787 30.822954 0.14047707
35.206704 30.822954 0.14047707
37.398537 30.822954 0.14047707
39.590454 30.822954 0.14047707
41.778514 30.822954 0.14047707
0.14047707 33.014787 0.14047707
2.3285792 33.014787 0.14047707
4.5204457 33.014787 0.14047707
6.7123207 33.014787 0.14047707
8.9042042 33.014787 0.14047707
11.096037 33.014787 0.14047707
13.287954 33.014787 0.14047707
15.479787 33.014787 0.14047707
17.671704 33.014787 0.14047707
19.863537 33.014787 0.14047707
22.055454 33.014787 0.14047707
24.247287 33.014787 0.14047707
26.439204 33.014787 0.14047707
28.631037 33.014787 0.14047707
30.822954 33.014787 0.14047707
33.014787 33.014787 0.14047707
35.206704 33.014787 0.14047707
37.398537 33.014787 0.14047707
[...]
POINT_DATA 3000
SCALARS m double
LOOKUP_TABLE default
1
1
1
1
1
1
1
1
1
1
1
1
1
1
1
1
1
1
1
1
1
1
1
1
1
1
1
1
1
1
1
1
1
1
1
1
1
1
1
1
1
1
1
1
1
1
1
1
1
1
1
1
1
1
1
1
1
1
1
1
1
1
1
1
1
1
1
1
1
1
1
1
1
1
1
1
1
1
1
1
1
1
1
1
1
1
1
1
1
1
1
1
1
1
1
1
1
1
1
1
1
1
1
1
1
1
1
1
1
1
1
1
1
1
1
1
1
1
1
1
1
1
1
1
1
1
1
1
1
1
1
1
1
1
1
1
1
1
1
1
1
1
1
1
1
1
1
1
1
1
1
1
1
1
1
1
1
1
1
1
1
1
1
1
1
1
1
1
1
1
1
1
1
1
1
1
1
1
1
1
1
1
1
1
1
1
1
1
1
1
1
1
1
1
1
1
1
1
1
1
1
1
1
1
1
1
1
1
1
1
1
1
1
1
1
1
1
1
1
1
1
1
1
1
1
1
1
1
1
1
1
1
1
1
1
1
1
1
1
1
1
1
1
1
1
1
1
1
1
1
1
1
1
1
1
1
1
1
1
1
1
1
1
1
1
1
1
1
1
1
1
1
1
1
1
1
1
1
1
1
1
1
1
1
1
1
1
1
1
1
1
1
1
1
1
1
1
1
1
1
1
1
1
1
1
1
1
1
1
1
1
1
1
1
1
1
1
1
1
1
1
1
1
1
1
1
1
1
1
1
1
1
1
1
1
1
1
1
1
1
1
1
1
1
1
1
1
1
1
1
1
1
1
1
1
1
1
1
1
1
1
1
1
1
1
1
1
1
1
1
1
1
1
1
1
1
1
1
1
1
1
1
1
1
1
1
1
1
1
1
1
1
1
1
1
1
1
1
1
1
1
1
1
1
1
1
1
1
1
1
1
1
1
1
1
1
1
1
1
1
1
1
1
1
1
1
1
1
1
1
1
1
1
1
1
1
1
1
1
1
1
1
1
1
1
1
1
1
1
1
1
1
1
1
1
1
1
1
1
1
1
1
1
1
1
1
1
1
1
1
1
1
1
1
1
1
1
1
1
1
1
1
1
1
1
1
1
1
1
1
1
1
1
1
1
1
1
1
1
1
1
1
1
1
1
1
1
1
1
1
1
1
1
1
1
1
1
1
1
1
1
1
1
1
1
1
1
1
1
1
1
1
1
1
1
1
1
1
1
1
1
1
1
1
1
1
1
1
1
1
1
1
1
1
1
1
1
1
1
1
1
1
1
1
1
1
1
1
1
1
1
1
1
1
1
1
1
1
1
1
1
1
1
1
1
1
1
1
1
1
1
1
1
1
1
1
1
1
1
1
1
1
1
1
1
1
1
1
1
1
1
1
1
1
1
1
1
1
1
1
1
1
1
1
1
1
1
1
1
1
1
1
1
1
1
1
1
1
1
1
1
1
1
1
1
1
1
1
1
1
1
1
1
1
1
1
1
1
1
1
1
1
1
1
1
1
1
1
1
1
1
1
1
1
1
1
1
1
1
1
1
1
1
1
1
1
1
1
1
1
1
1
1
1
1
1
1
1
1
1
1
1
1
1
1
1
1
1
1
1
1
1
1
1
1
1
1
1
1
1
1
1
1
1
1
1
1
1
1
1
1
1
1
1
1
1
1
1
1
1
1
1
1
1
1
1
1
1
1
1
1
1
1
1
1
1
1
1
1
1
1
1
1
1
1
1
1
1
1
1
1
1
1
1
1
1
1
1
1
1
1
1
1
1
1
1
1
1
1
1
1
1
1
1
1
1
1
1
1
1
1
1
1
1
1
1
1
1
1
1
1
1
1
1
1
1
1
1
1
1
1
1
1
1
1
1
1
1
1
1
1
1
1
1
1
1
1
1
1
1
1
1
1
1
1
1
1
1
1
1
1
1
1
1
1
1
1
1
1
1
1
1
1
1
1
1
1
1
1
1
1
1
1
1
1
1
1
1
1
1
1
1
1
1
1
1
1
1
1
1
1
1
1
1
1
1
1
1
1
1
1
1
1
1
1
1
1
1
1
1
1
1
1
1
1
1
1
1
1
1
1
1
1
1
1
1
1
1
1
1
1
1
1
1
1
1
1
1
1
1
1
1
1
1
1
1
1
1
1
1
1
1
1
1
1
1
1
1
1
1
1
1
1
1
1
1
1
1
1
1
1
1
1
1
1
1
1
1
1
1
1
1
1
1
1
1
1
1
1
1
1
1
1
1
1
1
1
1
1
1
1
1
1
1
1
1
1
1
1
1
1
1
1
1
1
1
1
1
1
1
1
1
1
1
1
1
1
1
1
1
1
1
1
1
1
1
1
1
1
1
1
1
1
1
1
1
1
1
1
1
1
1
1
1
1
1
1
1
1
1
1
1
1
1
1
1
1
1
1
1
1
1
1
1
1
1
1
1
1
1
1
1
1
1
1
1
1
1
1
1
1
1
1
1
1
1
1
1
1
1
1
1
1
1
1
1
1
1
1
1
1
1
1
1
1
1
1
1
1
1
1
1
1
1
1
1
1
1
1
1
1
1
1
1
1
1
1
1
1
1
1
1
1
1
1
1
1
1
1
1
1
1
1
1
1
1
1
1
1
1
1
1
1
1
1
1
1
1
1
1
1
1
1
1
1
1
1
1
1
1
1
1
1
1
1
1
1
1
1
1
1
1
1
1
1
1
1
1
1
1
1
1
1
1
1
1
1
1
1
1
1
1
1
1
1
1
1
1
1
1
1
1
1
1
1
1
1
1
1
1
1
1
1
1
1
1
1
1
1
1
1
1
1
1
1
1
1
1
1
1
1
1
1
1
1
1
1
1
1
1
1
1
1
1
1
1
1
1
1
1
1
1
1
1
1
1
1
1
1
1
1
1
1
1
1
1
1
1
1
1
1
1
1
1
1
1
1
1
1
1
1
1
1
1
1
1
1
1
1
1
1
1
1
1
1
1
1
1
1
1
1
1
1
1
1
1
1
1
1
1
1
1
1
1
1
1
1
1
1
1
1
1
1
1
1
1
1
1
1
1
1
1
1
1
1
1
1
1
1
1
1
1
1
1
1
1
1
1
1
1
1
1
1
1
1
1
1
1
1
1
1
1
1
1
1
1
1
1
1
1
1
1
1
1
1
1
1
1
1
1
1
1
1
1
1
1
1
1
1
1
1
1
1
1
1
1
1
1
1
1
1
1
1
1
1
1
1
1
1
1
1
1
1
1
1
1
1
1
1
1
1
1
1
1
1
1
1
1
1
1
1
1
1
1
1
1
1
1
1
1
1
1
1
1
1
1
1
1
1
1
1
1
1
1
1
1
1
1
1
1
1
1
1
1
1
1
1
1
1
1
1
1
1
1
1
1
1
1
1
1
1
1
1
1
1
1
1
1
1
1
1
1
1
1
1
1
1
1
1
1
1
1
1
1
1
1
1
1
1
1
1
1
1
1
1
1
1
1
1
1
1
1
1
1
1
1
1
1
1
1
1
1
1
1
1
1
1
1
1
1
1
1
1
1
1
1
1
1
1
1
1
1
1
1
1
1
1
1
1
1
1
1
1
1
1
1
1
1
1
1
1
1
1
1
1
1
1
1
1
1
1
1
1
1
1
1
1
1
1
1
1
1
1
1
1
1
1
1
1
1
1
1
1
1
1
1
1
1
1
1
1
1
1
1
1
1
1
1
1
1
1
1
1
1
1
1
1
1
1
1
1
1
1
1
1
1
1
1
1
1
1
1
1
1
1
1
1
1
1
1
1
1
1
1
1
1
1
1
1
1
1
1
1
1
1
1
1
1
1
1
1
1
1
1
1
1
1
1
1
1
1
1
1
1
1
1
1
1
1
1
1
1
1
1
1
1
1
1
1
1
1
1
1
1
1
1
1
1
1
1
1
1
1
1
1
1
1
1
1
1
1
1
1
1
1
1
1
1
1
1
1
1
1
1
1
1
1
1
1
1
1
1
1
1
1
1
1
1
1
1
1
1
1
1
1
1
1
1
1
1
1
1
1
1
1
1
1
1
1
1
1
1
1
1
1
1
1
1
1
1
1
1
1
1
1
1
1
1
1
1
1
1
1
1
1
1
1
1
1
1
1
1
1
1
1
1
1
1
1
1
1
1
1
1
1
1
1
1
1
1
1
1
1
1
1
1
1
1
1
1
1
1
1
1
1
1
1
1
1
1
1
1
1
1
1
1
1
1
1
1
1
1
1
1
1
1
1
1
1
1
1
1
1
1
1
1
1
1
1
1
1
1
1
1
1
1
1
1
1
1
1
1
1
1
1
1
1
1
1
1
1
1
1
1
1
1
1
1
1
1
1
1
1
1
1
1
1
1
1
1
1
1
1
1
1
1
1
1
1
1
1
1
1
1
1
1
1
1
1
1
1
1
1
1
1
1
1
1
1
1
1
1
1
1
1
1
1
1
1
1
1
1
1
1
1
1
1
1
1
1
1
1
1
1
1
1
1
1
1
1
1
1
1
1
1
1
1
1
1
1
1
1
1
1
1
1
1
1
1
1
1
1
1
1
1
1
1
1
1
1
1
1
1
1
1
1
1
1
1
1
1
1
1
1
1
1
1
1
1
1
1
1
1
1
1
1
1
1
1
1
1
1
1
1
1
1
1
1
1
1
1
1
1
1
1
1
1
1
1
1
1
1
1
1
1
1
1
1
1
1
1
1
1
1
1
1
1
1
1
1
1
1
1
1
1
1
1
1
1
1
1
1
1
1
1
1
1
1
1
1
1
1
1
1
1
1
1
1
1
1
1
1
1
1
1
1
1
1
1
1
1
1
1
1
1
1
1
1
1
1
1
1
1
1
1
1
1
1
1
1
1
1
1
1
1
1
1
1
1
1
1
1
1
1
1
1
1
1
1
1
1
1
1
1
1
1
1
1
1
1
1
1
1
1
1
1
1
1
1
1
1
1
1
1
1
1
1
1
1
1
1
1
1
1
1
1
1
1
1
1
1
1
1
1
1
1
1
1
1
1
1
1
1
1
1
1
1
1
1
1
1
1
1
1
1
1
1
1
1
1
1
1
1
1
1
1
1
1
1
1
1
1
1
1
1
1
1
1
1
1
1
1
1
1
1
1
1
1
1
1
1
1
1
1
1
1
1
1
1
1
1
1
1
1
1
1
1
1
1
1
1
1
1
1
1
1
1
1
1
1
1
1
1
1
1
1
1
1
1
1
1
1
1
1
1
1
1
1
1
1
1
1
1
1
1
1
1
1
1
1
1
1
1
1
1
1
1
1
1
1
1
1
1
1
1
1
1
1
1
1
1
1
1
1
1
1
1
1
1
1
1
1
1
1
1
1
1
1
1
1
1
1
1
1
1
1
1
1
1
1
1
1
1
1
1
1
1
1
1
1
1
1
1
1
1
1
1
1
1
1
1
1
1
1
1
1
1
1
1
1
1
1
1
1
1
1
1
1
1
1
1
1
1
1
1
1
1
1
1
1
1
1
1
1
1
1
1
1
1
1
1
1
1
1
1
1
1
1
1
1
1
1
1
1
1
1
1
1
1
1
1
1
1
1
1
1
1
1
1
1
1
1
1
1
1
1
1
1
1
1
1
1
1
1
1
1
1
1
1
1
1
1
1
1
1
1
1
1
1
1
1
1
1
1
1
1
1
1
1
1
1
1
1
1
1
1
1
1
1
1
1
1
1
1
1
1
1
1
1
1
1
1
1
1
1
1
1
1
1
1
1
1
1
1
1
1
1
1
1
1
1
1
1
1
1
1
1
1
1
1
1
1
1
1
1
1
1
1
1
1
1
1
1
1
1
1
1
1
1
1
1
1
1
1
1
1
1
1
1
1
1
1
1
1
1
1
1
1
1
1
1
1
1
1
1
1
1
1
1
1
1
1
1
1
1
1
1
1
1
1
1
1
1
1
1
1
1
1
1
1
1
1
1
1
1
1
1
1
1
1
1
1
1
1
1
1
1
1
1
1
1
1
1
1
1
1
1
1
1
1
1
1
1
1
1
1
1
1
1
1
1
1
1
1
1
1
1
1
1
1
1
1
1
1
1
1
1
1
1
1
1
1
1
1
1
1
1
1
1
1
1
1
1
1
1
1
1
1
1
1
1
1
1
1
1
1
1
1
1
1
1
1
1
1
1
1
1
1
1
1
1
1
1
1
1
1
1
1
1
1
1
1
1
1
1
1
1
1
1
1
1
1
1
1
1
1
1
1
1
1
1
1
1
1
1
1
1
1
1
1
1
1
1
1
1
1
1
1
1
1
1
1
1
1
1
1
1
1
1
1
1
1
1
1
1
1
1
1
1
1
1
1
1
1
1
1
1
1
1
1
1
1
1
1
1
1
1
1
1
1
1
1
1
1
1
1
1
1
1
1
1
1
1
1
1
1
1
1
1
1
1
1
1
1
1
1
1
1
1
1
1
1
1
1
1
1
1
1
1
1
1
1
1
1
1
1
1
1
1
1
1
1
1
1
1
1
1
1
1
1
1
1
1
1
1
1
1
1
1
1
1
1
1
1
1
1
1
1
1
1
1
1
1
1
1
1
1
1
1
1
1
1
1
1
1
1
1
1
1
1
1
1
1
1
1
1
1
1
1
1
1
1
1
1
1
1
1
1
1
1
1
1
1
1
1
1
1
1
1
1
1
1
1
1
1
1
1
1
1
1
1
1
1
1
1
1
1
1
1
1
1
1
1
1
1
1
1
1
1
1
1
1
1
1
1
1
1
1
1
1
1
1
1
1
1
1
1
1
1
1
VECTORS v double
-1.2694623 -1.2694623 -1.2694623
-2.6344455 -1.2694623 -1.2694623
-3.9934057 -1.2694623 -1.2694623
-5.3523712 -1.2694623 -1.2694623
-6.711342 -1.2694623 -1.2694623
-8.0702811 -1.2694623 -1.2694623
-9.429273 -1.2694623 -1.2694623
-10.788212 -1.2694623 -1.2694623
-12.147204 -1.2694623 -1.2694623
-13.506143 -1.2694623 -1.2694623
-14.865135 -1.2694623 -1.2694623
-16.224074 -1.2694623 -1.2694623
-17.583066 -1.2694623 -1.2694623
-18.942005 -1.2694623 -1.2694623
-20.300997 -1.2694623 -1.2694623
-21.659936 -1.2694623 -1.2694623
-23.018928 -1.2694623 -1.2694623
-24.377867 -1.2694623 -1.2694623
-25.736859 -1.2694623 -1.2694623
-27.101816 -1.2694623 -1.2694623
-1.2694623 -2.6344455 -1.2694623
-2.6344455 -2.6344455 -1.2694623
-3.9934057 -2.6344455 -1.2694623
-5.3523712 -2.6344455 -1.2694623
-6.711342 -2.6344455 -1.2694623
-8.0702811 -2.6344455 -1.2694623
-9.429273 -2.6344455 -1.2694623
-10.788212 -2.6344455 -1.2694623
-12.147204 -2.6344455 -1.2694623
-13.506143 -2.6344455 -1.2694623
-14.865135 -2.6344455 -1.2694623
-16.224074 -2.6344455 -1.2694623
-17.583066 -2.6344455 -1.2694623
-18.942005 -2.6344455 -1.2694623
-20.300997 -2.6344455 -1.2694623
-21.659936 -2.6344455 -1.2694623
-23.018928 -2.6344455 -1.2694623
-24.377867 -2.6344455 -1.2694623
-25.736859 -2.6344455 -1.2694623
-27.101816 -2.6344455 -1.2694623
-1.2694623 -3.9934057 -1.2694623
-2.6344455 -3.9934057 -1.2694623
-3.9934057 -3.9934057 -1.2694623
-5.3523712 -3.9934057 -1.2694623
-6.711342 -3.9934057 -1.2694623
-8.0702811 -3.9934057 -1.2694623
-9.429273 -3.9934057 -1.2694623
-10.788212 -3.9934057 -1.2694623
-12.147204 -3.9934057 -1.2694623
-13.506143 -3.9934057 -1.2694623
-14.865135 -3.9934057 -1.2694623
-16.224074 -3.9934057 -1.2694623
-17.583066 -3.9934057 -1.2694623
-18.942005 -3.9934057 -1.2694623
-20.300997 -3.9934057 -1.2694623
-21.659936 -3.9934057 -1.2694623
-23.018928 -3.9934057 -1.2694623
-24.377867 -3.9934057 -1.2694623
-25.736859 -3.9934057 -1.2694623
-27.101816 -3.9934057 -1.2694623
-1.2694623 -5.3523712 -1.2694623
-2.6344455 -5.3523712 -1.2694623
-3.9934057 -5.3523712 -1.2694623
-5.3523712 -5.3523712 -1.2694623
-6.711342 -5.3523712 -1.2694623
-8.0702811 -5.3523712 -1.2694623
-9.429273 -5.3523712 -1.2694623
-10.788212 -5.3523712 -1.2694623
-12.147204 -5.3523712 -1.2694623
-13.506143 -5.3523712 -1.2694623
-14.865135 -5.3523712 -1.2694623
-16.224074 -5.3523712 -1.2694623
-17.583066 -5.3523712 -1.2694623
-18.942005 -5.3523712 -1.2694623
-20.300997 -5.3523712 -1.2694623
-21.659936 -5.3523712 -1.2694623
-23.018928 -5.3523712 -1.2694623
-24.377867 -5.3523712 -1.2694623
-25.736859 -5.3523712 -1.2694623
-27.101816 -5.3523712 -1.2694623
-1.2694623 -6.711342 -1.2694623
-2.6344455 -6.711342 -1.2694623
-3.9934057 -6.711342 -1.2694623
-5.3523712 -6.711342 -1.2694623
-6.711342 -6.711342 -1.2694623
-8.0702811 -6.711342 -1.2694623
-9.429273 -6.711342 -1.2694623
-10.788212 -6.711342 -1.2694623
-12.147204 -6.711342 -1.2694623
-13.506143 -6.711342 -1.2694623
-14.865135 -6.711342 -1.2694623
-16.224074 -6.711342 -1.2694623
-17.583066 -6.711342 -1.2694623
-18.942005 -6.711342 -1.2694623
-20.300997 -6.711342 -1.2694623
-21.659936 -6.711342 -1.2694623
-23.018928 -6.711342 -1.2694623
-24.377867 -6.711342 -1.2694623
-25.736859 -6.711342 -1.2694623
-27.101816 -6.711342 -1.2694623
-1.2694623 -8.0702811 -1.2694623
-2.6344455 -8.0702811 -1.2694623
-3.9934057 -8.0702811 -1.2694623
-5.3523712 -8.0702811 -1.2694623
-6.711342 -8.0702811 -1.2694623
-8.0702811 -8.0702811 -1.2694623
-9.429273 -8.0702811 -1.2694623
-10.788212 -8.0702811 -1.2694623
-12.147204 -8.0702811 -1.2694623
-13.506143 -8.0702811 -1.2694623
-14.865135 -8.0702811 -1.2694623
-16.224074 -8.0702811 -1.2694623
-17.583066 -8.0702811 -1.2694623
-18.942005 -8.0702811 -1.2694623
-20.300997 -8.0702811 -1.2694623
-21.659936 -8.0702811 -1.2694623
-23.018928 -8.0702811 -1.2694623
-24.377867 -8.0702811 -1.2694623
-25.736859 -8.0702811 -1.2694623
-27.101816 -8.0702811 -1.2694623
-1.2694623 -9.429273 -1.2694623
-2.6344455 -9.429273 -1.2694623
-3.9934057 -9.429273 -1.2694623
-5.3523712 -9.429273 -1.2694623
-6.711342 -9.429273 -1.2694623
-8.0702811 -9.429273 -1.2694623
-9.429273 -9.429273 -1.2694623
-10.788212 -9.429273 -1.2694623
-12.147204 -9.429273 -1.2694623
-13.506143 -9.429273 -1.2694623
-14.865135 -9.429273 -1.2694623
-16.224074 -9.429273 -1.2694623
-17.583066 -9.429273 -1.2694623
-18.942005 -9.429273 -1.2694623
-20.300997 -9.429273 -1.2694623
-21.659936 -9.429273 -1.2694623
-23.018928 -9.429273 -1.2694623
-24.377867 -9.429273 -1.2694623
-25.736859 -9.429273 -1.2694623
-27.101816 -9.429273 -1.2694623
-1.2694623 -10.788212 -1.2694623
-2.6344455 -10.788212 -1.2694623
-3.9934057 -10.788212 -1.2694623
-5.3523712 -10.788212 -1.2694623
-6.711342 -10.788212 -1.2694623
-8.0702811 -10.788212 -1.2694623
-9.429273 -10.788212 -1.2694623
-10.788212 -10.788212 -1.2694623
-12.147204 -10.788212 -1.2694623
-13.506143 -10.788212 -1.2694623
-14.865135 -10.788212 -1.2694623
-16.224074 -10.788212 -1.2694623
-17.583066 -10.788212 -1.2694623
-18.942005 -10.788212 -1.2694623
-20.300997 -10.788212 -1.2694623
-21.659936 -10.788212 -1.2694623
-23.018928 -10.788212 -1.2694623
-24.377867 -10.788212 -1.2694623
-25.736859 -10.788212 -1.2694623
-27.101816 -10.788212 -1.2694623
-1.2694623 -12.147204 -1.2694623
-2.6344455 -12.147204 -1.2694623
-3.9934057 -12.147204 -1.2694623
-5.3523712 -12.147204 -1.2694623
-6.711342 -12.147204 -1.2694623
-8.0702811 -12.147204 -1.2694623
-9.429273 -12.147204 -1.2694623
-10.788212 -12.147204 -1.2694623
-12.147204 -12.147204 -1.2694623
-13.506143 -12.147204 -1.2694623
-14.865135 -12.147204 -1.2694623
-16.224074 -12.147204 -1.2694623
-17.583066 -12.147204 -1.2694623
-18.942005 -12.147204 -1.2694623
-20.300997 -12.147204 -1.2694623
-21.659936 -12.147204 -1.2694623
-23.018928 -12.147204 -1.2694623
-24.377867 -12.147204 -1.2694623
-25.736859 -12.147204 -1.2694623
-27.101816 -12.147204 -1.2694623
-1.2694623 -13.506143 -1.2694623
-2.6344455 -13.506143 -1.2694623
-3.9934057 -13.506143 -1.2694623
-5.3523712 -13.506143 -1.2694623
-6.711342 -13.506143 -1.2694623
-8.0702811 -13.506143 -1.2694623
-9.429273 -13.506143 -1.2694623
-10.788212 -13.506143 -1.2694623
-12.147204 -13.506143 -1.2694623
-13.506143 -13.506143 -1.2694623
-14.865135 -13.506143 -1.2694623
-16.224074 -13.506143 -1.2694623
-17.583066 -13.506143 -1.2694623
-18.942005 -13.506143 -1.2694623
-20.300997 -13.506143 -1.2694623
-21.659936 -13.506143 -1.2694623
-23.018928 -13.506143 -1.2694623
-24.377867 -13.506143 -1.2694623
-25.736859 -13.506143 -1.2694623
-27.101816 -13.506143 -1.2694623
-1.2694623 -14.865135 -1.2694623
-2.6344455 -14.865135 -1.2694623
-3.9934057 -14.865135 -1.2694623
-5.3523712 -14.865135 -1.2694623
-6.711342 -14.865135 -1.2694623
-8.0702811 -14.865135 -1.2694623
-9.429273 -14.865135 -1.2694623
-10.788212 -14.865135 -1.2694623
-12.147204 -14.865135 -1.2694623
-13.506143 -14.865135 -1.2694623
-14.865135 -14.865135 -1.2694623
-16.224074 -14.865135 -1.2694623
-17.583066 -14.865135 -1.2694623
-18.942005 -14.865135 -1.2694623
-20.300997 -14.865135 -1.2694623
-21.659936 -14.865135 -1.2694623
-23.018928 -14.865135 -1.2694623
-24.377867 -14.865135 -1.2694623
-25.736859 -14.865135 -1.2694623
-27.101816 -14.865135 -1.2694623
-1.2694623 -16.224074 -1.2694623
-2.6344455 -16.224074 -1.2694623
-3.9934057 -16.224074 -1.2694623
-5.3523712 -16.224074 -1.2694623
-6.711342 -16.224074 -1.2694623
-8.0702811 -16.224074 -1.2694623
-9.429273 -16.224074 -1.2694623
-10.788212 -16.224074 -1.2694623
-12.147204 -16.224074 -1.2694623
-13.506143 -16.224074 -1.2694623
-14.865135 -16.224074 -1.2694623
-16.224074 -16.224074 -1.2694623
-17.583066 -16.224074 -1.2694623
-18.942005 -16.224074 -1.2694623
-20.300997 -16.224074 -1.2694623
-21.659936 -16.224074 -1.2694623
-23.018928 -16.224074 -1.2694623
-24.377867 -16.224074 -1.2694623
-25.736859 -16.224074 -1.2694623
-27.101816 -16.224074 -1.2694623
-1.2694623 -17.583066 -1.2694623
-2.6344455 -17.583066 -1.2694623
-3.9934057 -17.583066 -1.2694623
-5.3523712 -17.583066 -1.2694623
-6.711342 -17.583066 -1.2694623
-8.0702811 -17.583066 -1.2694623
-9.429273 -17.583066 -1.2694623
-10.788212 -17.583066 -1.2694623
-12.147204 -17.583066 -1.2694623
-13.506143 -17.583066 -1.2694623
-14.865135 -17.583066 -1.2694623
-16.224074 -17.583066 -1.2694623
-17.583066 -17.583066 -1.2694623
-18.942005 -17.583066 -1.2694623
-20.300997 -17.583066 -1.2694623
-21.659936 -17.583066 -1.2694623
-23.018928 -17.583066 -1.2694623
-24.377867 -17.583066 -1.2694623
-25.736859 -17.583066 -1.2694623
-27.101816 -17.583066 -1.2694623
-1.2694623 -18.942005 -1.2694623
-2.6344455 -18.942005 -1.2694623
-3.9934057 -18.942005 -1.2694623
-5.3523712 -18.942005 -1.2694623
-6.711342 -18.942005 -1.2694623
-8.0702811 -18.942005 -1.2694623
-9.429273 -18.942005 -1.2694623
-10.788212 -18.942005 -1.2694623
-12.147204 -18.942005 -1.2694623
-13.506143 -18.942005 -1.2694623
-14.865135 -18.942005 -1.2694623
-16.224074 -18.942005 -1.2694623
-17.583066 -18.942005 -1.2694623
-18.942005 -18.942005 -1.2694623
-20.300997 -18.942005 -1.2694623
-21.659936 -18.942005 -1.2694623
-23.018928 -18.942005 -1.2694623
-24.377867 -18.942005 -1.2694623
-25.736859 -18.942005 -1.2694623
-27.101816 -18.942005 -1.2694623
-1.2694623 -20.300997 -1.2694623
-2.6344455 -20.300997 -1.2694623
-3.9934057 -20.300997 -1.2694623
-5.3523712 -20.300997 -1.2694623
-6.711342 -20.300997 -1.2694623
-8.0702811 -20.300997 -1.2694623
-9.429273 -20.300997 -1.2694623
-10.788212 -20.300997 -1.2694623
-12.147204 -20.300997 -1.2694623
-13.506143 -20.300997 -1.2694623
-14.865135 -20.300997 -1.2694623
-16.224074 -20.300997 -1.2694623
-17.583066 -20.300997 -1.2694623
-18.942005 -20.300997 -1.2694623
-20.300997 -20.300997 -1.2694623
-21.659936 -20.300997 -1.2694623
-23.018928 -20.300997 -1.2694623
-24.377867 -20.300997 -1.2694623
-25.736859 -20.300997 -1.2694623
-27.101816 -20.300997 -1.2694623
-1.2694623 -21.659936 -1.2694623
-2.6344455 -21.659936 -1.2694623
-3.9934057 -21.659936 -1.2694623
-5.3523712 -21.659936 -1.2694623
-6.711342 -21.659936 -1.2694623
-8.0702811 -21.659936 -1.2694623
-9.429273 -21.659936 -1.2694623
-10.788212 -21.659936 -1.2694623
-12.147204 -21.659936 -1.2694623
-13.506143 -21.659936 -1.2694623
-14.865135 -21.659936 -1.2694623
-16.224074 -21.659936 -1.2694623
-17.583066 -21.659936 -1.2694623
-18.942005 -21.659936 -1.2694623
-20.300997 -21.659936 -1.2694623
-21.659936 -21.659936 -1.2694623
-23.018928 -21.659936 -1.2694623
-24.377867 -21.659936 -1.2694623
-25.736859 -21.659936 -1.2694623
-27.101816 -21.659936 -1.2694623
-1.2694623 -23.018928 -1.2694623
-2.6344455 -23.018928 -1.2694623
-3.9934057 -23.018928 -1.2694623
-5.3523712 -23.018928 -1.2694623
-6.711342 -23.018928 -1.2694623
-8.0702811 -23.018928 -1.2694623
-9.429273 -23.018928 -1.2694623
-10.788212 -23.018928 -1.2694623
-12.147204 -23.018928 -1.2694623
-13.506143 -23.018928 -1.2694623
-14.865135 -23.018928 -1.2694623
-16.224074 -23.018928 -1.2694623
-17.583066 -23.018928 -1.2694623
-18.942005 -23.018928 -1.2694623
-20.300997 -23.018928 -1.2694623
-21.659936 -23.018928 -1.2694623
-23.018928 -23.018928 -1.2694623
-24.377867 -23.018928 -1.2694623
-25.736859 -23.018928 -1.2694623
-27.101816 -23.018928 -1.2694623
-1.2694623 -24.377867 -1.2694623
-2.6344455 -24.377867 -1.2694623
-3.9934057 -24.377867 -1.2694623
-5.3523712 -24.377867 -1.2694623
-6.711342 -24.377867 -1.2694623
-8.0702811 -24.377867 -1.2694623
-9.429273 -24.377867 -1.2694623
-10.788212 -24.377867 -1.2694623
-12.147204 -24.377867 -1.2694623
-13.506143 -24.377867 -1.2694623
-14.865135 -24.377867 -1.2694623
-16.224074 -24.377867 -1.2694623
-17.583066 -24.377867 -1.2694623
-18.942005 -24.377867 -1.2694623
-20.300997 -24.377867 -1.2694623
-21.659936 -24.377867 -1.2694623
-23.018928 -24.377867 -1.2694623
-24.377867 -24.377867 -1.2694623
-25.736859 -24.377867 -1.2694623
-27.101816 -24.377867 -1.2694623
-1.2694623 -25.736859 -1.2694623
-2.6344455 -25.736859 -1.2694623
-3.9934057 -25.736859 -1.2694623
-5.3523712 -25.736859 -1.2694623
-6.711342 -25.736859 -1.2694623
-8.0702811 -25.736859 -1.2694623
-9.429273 -25.736859 -1.2694623
-10.788212 -25.736859 -1.2694623
-12.147204 -25.736859 -1.2694623
-13.506143 -25.736859 -1.2694623
-14.865135 -25.736859 -1.2694623
-16.224074 -25.736859 -1.2694623
-17.583066 -25.736859 -1.2694623
-18.942005 -25.736859 -1.2694623
-20.300997 -25.736859 -1.2694623
-21.659936 -25.736859 -1.2694623
-23.018928 -25.736859 -1.2694623
-24.377867 -25.736859 -1.2694623
-25.736859 -25.736859 -1.2694623
-27.101816 -25.736859 -1.2694623
-1.2694623 -27.101816 -1.2694623
-2.6344455 -27.101816 -1.2694623
-3.9934057 -27.101816 -1.2694623
-5.3523712 -27.101816 -1.2694623
-6.711342 -27.101816 -1.2694623
-8.0702811 -27.101816 -1.2694623
-9.429273 -27.101816 -1.2694623
-10.788212 -27.101816 -1.2694623
-12.147204 -27.101816 -1.2694623
-13.506143 -27.101816 -1.2694623
-14.865135 -27.101816 -1.2694623
-16.224074 -27.101816 -1.2694623
-17.583066 -27.101816 -1.2694623
-18.942005 -27.101816 -1.2694623
-20.300997 -27.101816 -1.2694623
-21.659936 -27.101816 -1.2694623
-23.018928 -27.101816 -1.2694623
-24.377867 -27.101816 -1.2694623
-25.736859 -27.101816 -1.2694623
-27.101816 -27.101816 -1.2694623
-1.2694623 -1.2694623 -2.6344455
-2.6344455 -1.2694623 -2.6344455
-3.9934057 -1.2694623 -2.6344455
-5.3523712 -1.2694623 -2.6344455
-6.711342 -1.2694623 -2.6344455
-8.0702811 -1.2694623 -2.6344455
-9.429273 -1.2694623 -2.6344455
-10.788212 -1.2694623 -2.6344455
-12.147204 -1.2694623 -2.6344455
-13.506143 -1.2694623 -2.6344455
-14.865135 -1.2694623 -2.6344455
-16.224074 -1.2694623 -2.6344455
-17.583066 -1.2694623 -2.6344455
-18.942005 -1.2694623 -2.6344455
-20.300997 -1.2694623 -2.6344455
-21.659936 -1.2694623 -2.6344455
-23.018928 -1.2694623 -2.6344455
-24.377867 -1.2694623 -2.6344455
-25.736859 -1.2694623 -2.6344455
-27.101816 -1.2694623 -2.6344455
-1.2694623 -2.6344455 -2.6344455
-2.6344455 -2.6344455 -2.6344455
-3.9934057 -2.6344455 -2.6344455
-5.3523712 -2.6344455 -2.6344455