# vtk DataFile Version 4.0
hesp visualization file
ASCII
DATASET UNSTRUCTURED_GRID
POINTS 3000 double
0.3255413 0.3255413 0.3255413
2.7130361 0.3255413 0.3255413
5.103222 0.3255413 0.3255413
7.4934171 0.3255413 0.3255413
9.8836215 0.3255413 0.3255413
12.27377 0.3255413 0.3255413
14.664012 0.3255413 0.3255413
17.054161 0.3255413 0.3255413
19.444402 0.3255413 0.3255413
21.834551 0.3255413 0.3255413
24.224792 0.3255413 0.3255413
26.614941 0.3255413 0.3255413
29.005183 0.3255413 0.3255413
31.395331 0.3255413 0.3255413
33.785573 0.3255413 0.3255413
36.175722 0.3255413 0.3255413
38.565963 0.3255413 0.3255413
40.956112 0.3255413 0.3255413
43.346353 0.3255413 0.3255413
45.733802 0.3255413 0.3255413
0.3255413 2.7130361 0.3255413
2.7130361 2.7130361 0.3255413
5.103222 2.7130361 0.3255413
7.4934171 2.7130361 0.3255413
9.8836215 2.7130361 0.3255413
12.27377 2.7130361 0.3255413
14.664012 2.7130361 0.3255413
17.054161 2.7130361 0.3255413
19.444402 2.7130361 0.3255413
21.834551 2.7130361 0.3255413
24.224792 2.7130361 0.3255413
26.614941 2.7130361 0.3255413
29.005183 2.7130361 0.3255413
31.395331 2.7130361 0.3255413
33.785573 2.7130361 0.3255413
36.175722 2.7130361 0.3255413
38.565963 2.7130361 0.3255413
40.956112 2.7130361 0.3255413
43.346353 2.7130361 0.3255413
45.733802 2.7130361 0.3255413
0.3255413 5.103222 0.3255413
2.7130361 5.103222 0.3255413
5.103222 5.103222 0.3255413
7.4934171 5.103222 0.3255413
9.8836215 5.103222 0.3255413
12.27377 5.103222 0.3255413
14.664012 5.103222 0.3255413
17.054161 5.103222 0.3255413
19.444402 5.103222 0.3255413
21.834551 5.103222 0.3255413
24.224792 5.103222 0.3255413
26.614941 5.103222 0.3255413
29.005183 5.103222 0.3255413
31.395331 5.103222 0.3255413
33.785573 5.103222 0.3255413
36.175722 5.103222 0.3255413
38.565963 5.103222 0.3255413
40.956112 5.103222 0.3255413
43.346353 5.103222 0.3255413
45.733802 5.103222 0.3255413
0.3255413 7.4934171 0.3255413
2.7130361 7.4934171 0.3255413
5.103222 7.4934171 0.3255413
7.4934171 7.4934171 0.3255413
9.8836215 7.4934171 0.3255413
12.27377 7.4934171 0.3255413
14.664012 7.4934171 0.3255413
17.054161 7.4934171 0.3255413
19.444402 7.4934171 0.3255413
21.834551 7.4934171 0.3255413
24.224792 7.4934171 0.3255413
26.614941 7.4934171 0.3255413
29.005183 7.4934171 0.3255413
31.395331 7.4934171 0.3255413
33.785573 7.4934171 0.3255413
36.175722 7.4934171 0.3255413
38.565963 7.4934171 0.3255413
40.956112 7.4934171 0.3255413
43.346353 7.4934171 0.3255413
45.733802 7.4934171 0.3255413
0.3255413 9.8836215 0.3255413
2.7130361 9.8836215 0.3255413
5.103222 9.8836215 0.3255413
7.4934171 9.8836215 0.3255413
9.8836215 9.8836215 0.3255413
12.27377 9.8836215 0.3255413
14.664012 9.8836215 0.3255413
17.054161 9.8836215 0.3255413
19.444402 9.8836215 0.3255413
21.834551 9.8836215 0.3255413
24.224792 9.8836215 0.3255413
26.614941 9.8836215 0.3255413
29.005183 9.8836215 0.3255413
31.395331 9.8836215 0.3255413
33.785573 9.8836215 0.3255413
36.175722 9.8836215 0.3255413
38.565963 9.8836215 0.3255413
40.956112 9.8836215 0.3255413
43.346353 9.8836215 0.3255413
45.733802 9.8836215 0.3255413
0.3255413 12.27377 0.3255413
2.7130361 12.27377 0.3255413
5.103222 12.27377 0.3255413
7.4934171 12.27377 0.3255413
9.8836215 12.27377 0.3255413
12.27377 12.27377 0.3255413
14.664012 12.27377 0.3255413
17.054161 12.27377 0.3255413
19.444402 12.27377 0.3255413
21.834551 12.27377 0.3255413
24.224792 12.27377 0.3255413
26.614941 12.27377 0.3255413
29.005183 12.27377 0.3255413
31.395331 12.27377 0.3255413
33.785573 12.27377 0.3255413
36.175722 12.27377 0.3255413
38.565963 12.27377 0.3255413
40.956112 12.27377 0.3255413
43.346353 12.27377 0.3255413
45.733802 12.27377 0.3255413
0.3255413 14.664012 0.3255413
2.7130361 14.664012 0.3255413
5.103222 14.664012 0.3255413
7.4934171 14.664012 0.3255413
9.8836215 14.664012 0.3255413
12.27377 14.664012 0.3255413
14.664012 14.664012 0.3255413
17.054161 14.664012 0.3255413
19.444402 14.664012 0.3255413
21.834551 14.664012 0.3255413
24.224792 14.664012 0.3255413
26.614941 14.664012 0.3255413
29.005183 14.664012 0.3255413
31.395331 14.664012 0.3255413
33.785573 14.664012 0.3255413
36.175722 14.664012 0.3255413
38.565963 14.664012 0.3255413
40.956112 14.664012 0.3255413
43.346353 14.664012 0.3255413
45.733802 14.664012 0.3255413
0.3255413 17.054161 0.3255413
2.7130361 17.054161 0.3255413
5.103222 17.054161 0.3255413
7.4934171 17.054161 0.3255413
9.8836215 17.054161 0.3255413
12.27377 17.054161 0.3255413
14.664012 17.054161 0.3255413
17.054161 17.054161 0.3255413
19.444402 17.054161 0.3255413
21.834551 17.054161 0.3255413
24.224792 17.054161 0.3255413
26.614941 17.054161 0.3255413
29.005183 17.054161 0.3255413
31.395331 17.054161 0.3255413
33.785573 17.054161 0.3255413
36.175722 17.054161 0.3255413
38.565963 17.054161 0.3255413
40.956112 17.054161 0.3255413
43.346353 17.054161 0.3255413
45.733802 17.054161 0.3255413
0.3255413 19.444402 0.3255413
2.7130361 19.444402 0.3255413
5.103222 19.444402 0.3255413
7.4934171 19.444402 0.3255413
9.8836215 19.444402 0.3255413
12.27377 19.444402 0.3255413
14.664012 19.444402 0.3255413
17.054161 19.444402 0.3255413
19.444402 19.444402 0.3255413
21.834551 19.444402 0.3255413
24.224792 19.444402 0.3255413
26.614941 19.444402 0.3255413
29.005183 19.444402 0.3255413
31.395331 19.444402 0.3255413
33.785573 19.444402 0.3255413
36.175722 19.444402 0.3255413
38.565963 19.444402 0.3255413
40.956112 19.444402 0.3255413
43.346353 19.444402 0.3255413
45.733802 19.444402 0.3255413
0.3255413 21.834551 0.3255413
2.7130361 21.834551 0.3255413
5.103222 21.834551 0.3255413
7.4934171 21.834551 0.3255413
9.8836215 21.834551 0.3255413
12.27377 21.834551 0.3255413
14.664012 21.834551 0.3255413
17.054161 21.834551 0.3255413
19.444402 21.834551 0.3255413
21.834551 21.834551 0.3255413
24.224792 21.834551 0.3255413
26.614941 21.834551 0.3255413
29.005183 21.834551 0.3255413
31.395331 21.834551 0.3255413
33.785573 21.834551 0.3255413
36.175722 21.834551 0.3255413
38.565963 21.834551 0.3255413
40.956112 21.834551 0.3255413
43.346353 21.834551 0.3255413
45.733802 21.834551 0.3255413
0.3255413 24.224792 0.3255413
2.7130361 24.224792 0.3255413
5.103222 24.224792 0.3255413
7.4934171 24.224792 0.3255413
9.8836215 24.224792 0.3255413
12.27377 24.224792 0.3255413
14.664012 24.224792 0.3255413
17.054161 24.224792 0.3255413
19.444402 24.224792 0.3255413
21.834551 24.224792 0.3255413
24.224792 24.224792 0.3255413
26.614941 24.224792 0.3255413
29.005183 24.224792 0.3255413
31.395331 24.224792 0.3255413
33.785573 24.224792 0.3255413
36.175722 24.224792 0.3255413
38.565963 24.224792 0.3255413
40.956112 24.224792 0.3255413
43.346353 24.224792 0.3255413
45.733802 24.224792 0.3255413
0.3255413 26.614941 0.3255413
2.7130361 26.614941 0.3255413
5.103222 26.614941 0.3255413
7.4934171 26.614941 0.3255413
9.8836215 26.614941 0.3255413
12.27377 26.614941 0.3255413
14.664012 26.614941 0.3255413
17.054161 26.614941 0.3255413
19.444402 26.614941 0.3255413
21.834551 26.614941 0.3255413
24.224792 26.614941 0.3255413
26.614941 26.614941 0.3255413
29.005183 26.614941 0.3255413
31.395331 26.614941 0.3255413
33.785573 26.614941 0.3255413
36.175722 26.614941 0.3255413
38.565963 26.614941 0.3255413
40.956112 26.614941 0.3255413
43.346353 26.614941 0.3255413
45.733802 26.614941 0.3255413
0.3255413 29.005183 0.3255413
2.7130361 29.005183 0.3255413
5.103222 29.005183 0.3255413
7.4934171 29.005183 0.3255413
9.8836215 29.005183 0.3255413
12.27377 29.005183 0.3255413
14.664012 29.005183 0.3255413
17.054161 29.005183 0.3255413
19.444402 29.005183 0.3255413
21.834551 29.005183 0.3255413
24.224792 29.005183 0.3255413
26.614941 29.005183 0.3255413
29.005183 29.005183 0.3255413
31.395331 29.005183 0.3255413
33.785573 29.005183 0.3255413
36.175722 29.005183 0.3255413
38.565963 29.005183 0.3255413
40.956112 29.005183 0.3255413
43.346353 29.005183 0.3255413
45.733802 29.005183 0.3255413
0.3255413 31.395331 0.3255413
2.7130361 31.395331 0.3255413
5.103222 31.395331 0.3255413
7.4934171 31.395331 0.3255413
9.8836215 31.395331 0.3255413
12.27377 31.395331 0.3255413
14.664012 31.395331 0.3255413
17.054161 31.395331 0.3255413
19.444402 31.395331 0.3255413
21.834551 31.395331 0.3255413
24.224792 31.395331 0.3255413
26.614941 31.395331 0.3255413
29.005183 31.395331 0.3255413
31.395331 31.395331 0.3255413
33.785573 31.395331 0.3255413
36.175722 31.395331 0.3255413
38.565963 31.395331 0.3255413
40.956112 31.395331 0.3255413
43.346353 31.395331 0.3255413
45.733802 31.395331 0.3255413
0.3255413 33.785573 0.3255413
2.7130361 33.785573 0.3255413
5.103222 33.785573 0.3255413
7.4934171 33.785573 0.3255413
9.8836215 33.785573 0.3255413
12.27377 33.785573 0.3255413
14.664012 33.785573 0.3255413
17.054161 33.785573 0.3255413
19.444402 33.785573 0.3255413
21.834551 33.785573 0.3255413
24.224792 33.785573 0.3255413
26.614941 33.785573 0.3255413
29.005183 33.785573 0.3255413
31.395331 33.785573 0.3255413
33.785573 33.785573 0.3255413
36.175722 33.785573 0.3255413
38.565963 33.785573 0.3255413
40.956112 33.785573 0.3255413
43.346353 33.785573 0.3255413
45.733802 33.785573 0.3255413
0.3255413 36.175722 0.3255413
2.7130361 36.175722 0.3255413
5.103222 36.175722 0.3255413
7.4934171 36.175722 0.3255413
9.8836215 36.175722 0.3255413
12.27377 36.175722 0.3255413
14.664012 36.175722 0.3255413
17.054161 36.175722 0.3255413
19.444402 36.175722 0.3255413
21.834551 36.175722 0.3255413
24.224792 36.175722 0.3255413
26.614941 36.175722 0.3255413
29.005183 36.175722 0.3255413
31.395331 36.175722 0.3255413
33.785573 36.175722 0.3255413
36.175722 36.175722 0.3255413
38.565963 36.175722 0.3255413
40.956112 36.175722 0.3255413
43.346353 36.175722 0.3255413
45.733802 36.175722 0.3255413
0.3255413 38.565963 0.3255413
2.7130361 38.565963 0.3255413
5.103222 38.565963 0.3255413
7.4934171 38.565963 0.3255413
9.8836215 38.565963 0.3255413
12.27377 38.565963 0.3255413
14.664012 38.565963 0.3255413
17.054161 38.565963 0.3255413
19.444402 38.565963 0.3255413
21.834551 38.565963 0.3255413
24.224792 38.565963 0.3255413
26.614941 38.565963 0.3255413
[...]
POINT_DATA 3000
SCALARS m double
LOOKUP_TABLE default
1
1
1
1
1
1
1
1
1
1
1
1
1
1
1
1
1
1
1
1
1
1
1
1
1
1
1
1
1
1
1
1
1
1
1
1
1
1
1
1
1
1
1
1
1
1
1
1
1
1
1
1
1
1
1
1
1
1
1
1
1
1
1
1
1
1
1
1
1
1
1
1
1
1
1
1
1
1
1
1
1
1
1
1
1
1
1
1
1
1
1
1
1
1
1
1
1
1
1
1
1
1
1
1
1
1
1
1
1
1
1
1
1
1
1
1
1
1
1
1
1
1
1
1
1
1
1
1
1
1
1
1
1
1
1
1
1
1
1
1
1
1
1
1
1
1
1
1
1
1
1
1
1
1
1
1
1
1
1
1
1
1
1
1
1
1
1
1
1
1
1
1
1
1
1
1
1
1
1
1
1
1
1
1
1
1
1
1
1
1
1
1
1
1
1
1
1
1
1
1
1
1
1
1
1
1
1
1
1
1
1
1
1
1
1
1
1
1
1
1
1
1
1
1
1
1
1
1
1
1
1
1
1
1
1
1
1
1
1
1
1
1
1
1
1
1
1
1
1
1
1
1
1
1
1
1
1
1
1
1
1
1
1
1
1
1
1
1
1
1
1
1
1
1
1
1
1
1
1
1
1
1
1
1
1
1
1
1
1
1
1
1
1
1
1
1
1
1
1
1
1
1
1
1
1
1
1
1
1
1
1
1
1
1
1
1
1
1
1
1
1
1
1
1
1
1
1
1
1
1
1
1
1
1
1
1
1
1
1
1
1
1
1
1
1
1
1
1
1
1
1
1
1
1
1
1
1
1
1
1
1
1
1
1
1
1
1
1
1
1
1
1
1
1
1
1
1
1
1
1
1
1
1
1
1
1
1
1
1
1
1
1
1
1
1
1
1
1
1
1
1
1
1
1
1
1
1
1
1
1
1
1
1
1
1
1
1
1
1
1
1
1
1
1
1
1
1
1
1
1
1
1
1
1
1
1
1
1
1
1
1
1
1
1
1
1
1
1
1
1
1
1
1
1
1
1
1
1
1
1
1
1
1
1
1
1
1
1
1
1
1
1
1
1
1
1
1
1
1
1
1
1
1
1
1
1
1
1
1
1
1
1
1
1
1
1
1
1
1
1
1
1
1
1
1
1
1
1
1
1
1
1
1
1
1
1
1
1
1
1
1
1
1
1
1
1
1
1
1
1
1
1
1
1
1
1
1
1
1
1
1
1
1
1
1
1
1
1
1
1
1
1
1
1
1
1
1
1
1
1
1
1
1
1
1
1
1
1
1
1
1
1
1
1
1
1
1
1
1
1
1
1
1
1
1
1
1
1
1
1
1
1
1
1
1
1
1
1
1
1
1
1
1
1
1
1
1
1
1
1
1
1
1
1
1
1
1
1
1
1
1
1
1
1
1
1
1
1
1
1
1
1
1
1
1
1
1
1
1
1
1
1
1
1
1
1
1
1
1
1
1
1
1
1
1
1
1
1
1
1
1
1
1
1
1
1
1
1
1
1
1
1
1
1
1
1
1
1
1
1
1
1
1
1
1
1
1
1
1
1
1
1
1
1
1
1
1
1
1
1
1
1
1
1
1
1
1
1
1
1
1
1
1
1
1
1
1
1
1
1
1
1
1
1
1
1
1
1
1
1
1
1
1
1
1
1
1
1
1
1
1
1
1
1
1
1
1
1
1
1
1
1
1
1
1
1
1
1
1
1
1
1
1
1
1
1
1
1
1
1
1
1
1
1
1
1
1
1
1
1
1
1
1
1
1
1
1
1
1
1
1
1
1
1
1
1
1
1
1
1
1
1
1
1
1
1
1
1
1
1
1
1
1
1
1
1
1
1
1
1
1
1
1
1
1
1
1
1
1
1
1
1
1
1
1
1
1
1
1
1
1
1
1
1
1
1
1
1
1
1
1
1
1
1
1
1
1
1
1
1
1
1
1
1
1
1
1
1
1
1
1
1
1
1
1
1
1
1
1
1
1
1
1
1
1
1
1
1
1
1
1
1
1
1
1
1
1
1
1
1
1
1
1
1
1
1
1
1
1
1
1
1
1
1
1
1
1
1
1
1
1
1
1
1
1
1
1
1
1
1
1
1
1
1
1
1
1
1
1
1
1
1
1
1
1
1
1
1
1
1
1
1
1
1
1
1
1
1
1
1
1
1
1
1
1
1
1
1
1
1
1
1
1
1
1
1
1
1
1
1
1
1
1
1
1
1
1
1
1
1
1
1
1
1
1
1
1
1
1
1
1
1
1
1
1
1
1
1
1
1
1
1
1
1
1
1
1
1
1
1
1
1
1
1
1
1
1
1
1
1
1
1
1
1
1
1
1
1
1
1
1
1
1
1
1
1
1
1
1
1
1
1
1
1
1
1
1
1
1
1
1
1
1
1
1
1
1
1
1
1
1
1
1
1
1
1
1
1
1
1
1
1
1
1
1
1
1
1
1
1
1
1
1
1
1
1
1
1
1
1
1
1
1
1
1
1
1
1
1
1
1
1
1
1
1
1
1
1
1
1
1
1
1
1
1
1
1
1
1
1
1
1
1
1
1
1
1
1
1
1
1
1
1
1
1
1
1
1
1
1
1
1
1
1
1
1
1
1
1
1
1
1
1
1
1
1
1
1
1
1
1
1
1
1
1
1
1
1
1
1
1
1
1
1
1
1
1
1
1
1
1
1
1
1
1
1
1
1
1
1
1
1
1
1
1
1
1
1
1
1
1
1
1
1
1
1
1
1
1
1
1
1
1
1
1
1
1
1
1
1
1
1
1
1
1
1
1
1
1
1
1
1
1
1
1
1
1
1
1
1
1
1
1
1
1
1
1
1
1
1
1
1
1
1
1
1
1
1
1
1
1
1
1
1
1
1
1
1
1
1
1
1
1
1
1
1
1
1
1
1
1
1
1
1
1
1
1
1
1
1
1
1
1
1
1
1
1
1
1
1
1
1
1
1
1
1
1
1
1
1
1
1
1
1
1
1
1
1
1
1
1
1
1
1
1
1
1
1
1
1
1
1
1
1
1
1
1
1
1
1
1
1
1
1
1
1
1
1
1
1
1
1
1
1
1
1
1
1
1
1
1
1
1
1
1
1
1
1
1
1
1
1
1
1
1
1
1
1
1
1
1
1
1
1
1
1
1
1
1
1
1
1
1
1
1
1
1
1
1
1
1
1
1
1
1
1
1
1
1
1
1
1
1
1
1
1
1
1
1
1
1
1
1
1
1
1
1
1
1
1
1
1
1
1
1
1
1
1
1
1
1
1
1
1
1
1
1
1
1
1
1
1
1
1
1
1
1
1
1
1
1
1
1
1
1
1
1
1
1
1
1
1
1
1
1
1
1
1
1
1
1
1
1
1
1
1
1
1
1
1
1
1
1
1
1
1
1
1
1
1
1
1
1
1
1
1
1
1
1
1
1
1
1
1
1
1
1
1
1
1
1
1
1
1
1
1
1
1
1
1
1
1
1
1
1
1
1
1
1
1
1
1
1
1
1
1
1
1
1
1
1
1
1
1
1
1
1
1
1
1
1
1
1
1
1
1
1
1
1
1
1
1
1
1
1
1
1
1
1
1
1
1
1
1
1
1
1
1
1
1
1
1
1
1
1
1
1
1
1
1
1
1
1
1
1
1
1
1
1
1
1
1
1
1
1
1
1
1
1
1
1
1
1
1
1
1
1
1
1
1
1
1
1
1
1
1
1
1
1
1
1
1
1
1
1
1
1
1
1
1
1
1
1
1
1
1
1
1
1
1
1
1
1
1
1
1
1
1
1
1
1
1
1
1
1
1
1
1
1
1
1
1
1
1
1
1
1
1
1
1
1
1
1
1
1
1
1
1
1
1
1
1
1
1
1
1
1
1
1
1
1
1
1
1
1
1
1
1
1
1
1
1
1
1
1
1
1
1
1
1
1
1
1
1
1
1
1
1
1
1
1
1
1
1
1
1
1
1
1
1
1
1
1
1
1
1
1
1
1
1
1
1
1
1
1
1
1
1
1
1
1
1
1
1
1
1
1
1
1
1
1
1
1
1
1
1
1
1
1
1
1
1
1
1
1
1
1
1
1
1
1
1
1
1
1
1
1
1
1
1
1
1
1
1
1
1
1
1
1
1
1
1
1
1
1
1
1
1
1
1
1
1
1
1
1
1
1
1
1
1
1
1
1
1
1
1
1
1
1
1
1
1
1
1
1
1
1
1
1
1
1
1
1
1
1
1
1
1
1
1
1
1
1
1
1
1
1
1
1
1
1
1
1
1
1
1
1
1
1
1
1
1
1
1
1
1
1
1
1
1
1
1
1
1
1
1
1
1
1
1
1
1
1
1
1
1
1
1
1
1
1
1
1
1
1
1
1
1
1
1
1
1
1
1
1
1
1
1
1
1
1
1
1
1
1
1
1
1
1
1
1
1
1
1
1
1
1
1
1
1
1
1
1
1
1
1
1
1
1
1
1
1
1
1
1
1
1
1
1
1
1
1
1
1
1
1
1
1
1
1
1
1
1
1
1
1
1
1
1
1
1
1
1
1
1
1
1
1
1
1
1
1
1
1
1
1
1
1
1
1
1
1
1
1
1
1
1
1
1
1
1
1
1
1
1
1
1
1
1
1
1
1
1
1
1
1
1
1
1
1
1
1
1
1
1
1
1
1
1
1
1
1
1
1
1
1
1
1
1
1
1
1
1
1
1
1
1
1
1
1
1
1
1
1
1
1
1
1
1
1
1
1
1
1
1
1
1
1
1
1
1
1
1
1
1
1
1
1
1
1
1
1
1
1
1
1
1
1
1
1
1
1
1
1
1
1
1
1
1
1
1
1
1
1
1
1
1
1
1
1
1
1
1
1
1
1
1
1
1
1
1
1
1
1
1
1
1
1
1
1
1
1
1
1
1
1
1
1
1
1
1
1
1
1
1
1
1
1
1
1
1
1
1
1
1
1
1
1
1
1
1
1
1
1
1
1
1
1
1
1
1
1
1
1
1
1
1
1
1
1
1
1
1
1
1
1
1
1
1
1
1
1
1
1
1
1
1
1
1
1
1
1
1
1
1
1
1
1
1
1
1
1
1
1
1
1
1
1
1
1
1
1
1
1
1
1
1
1
1
1
1
1
1
1
1
1
1
1
1
1
1
1
1
1
1
1
1
1
1
1
1
1
1
1
1
1
1
1
1
1
1
1
1
1
1
1
1
1
1
1
1
1
1
1
1
1
1
1
1
1
1
1
1
1
1
1
1
1
1
1
1
1
1
1
1
1
1
1
1
1
1
1
1
1
1
1
1
1
1
1
1
1
1
1
1
1
1
1
1
1
1
1
1
1
1
1
1
1
1
1
1
1
1
1
1
1
1
1
1
1
1
1
1
1
1
1
1
1
1
1
1
1
1
1
1
1
1
1
1
1
1
1
1
1
1
1
1
1
1
1
1
1
1
1
1
1
1
1
1
1
1
1
1
1
1
1
1
1
1
1
1
1
1
1
1
1
1
1
1
1
1
1
1
1
1
1
1
1
1
1
1
1
1
1
1
1
1
1
1
1
1
1
1
1
1
1
1
1
1
1
1
1
1
1
1
1
1
1
1
1
1
1
1
1
1
1
1
1
1
1
1
1
1
1
1
1
1
1
1
1
1
1
1
1
1
1
1
1
1
1
1
1
1
1
1
1
1
1
1
1
1
1
1
1
1
1
1
1
1
1
1
1
1
1
1
1
1
1
1
1
1
1
1
1
1
1
1
1
1
1
1
1
1
1
1
1
1
1
1
1
1
1
1
1
1
1
1
1
1
1
1
1
1
1
1
1
1
1
1
1
1
1
1
1
1
1
1
1
1
1
1
1
1
1
1
1
1
1
1
1
1
1
1
1
1
1
1
1
1
1
1
1
1
1
1
1
1
1
1
1
1
1
1
1
1
1
1
1
1
1
1
1
1
1
1
1
1
1
1
1
1
1
1
1
1
1
1
1
1
1
1
1
1
1
1
1
1
1
1
1
1
1
1
1
1
1
1
1
1
1
1
1
1
1
1
1
1
1
1
1
1
1
1
1
1
1
1
1
1
1
1
1
1
1
1
1
1
1
1
1
1
1
1
1
1
1
1
1
1
1
1
1
1
1
1
1
1
1
1
1
1
1
1
1
1
1
1
1
1
1
1
1
1
1
1
1
1
1
1
1
1
1
1
1
1
1
1
1
1
1
1
1
1
1
1
1
1
1
1
1
1
1
1
1
1
1
1
1
1
1
1
1
1
1
1
1
1
1
1
1
1
1
1
1
1
1
1
1
1
1
1
1
1
1
1
1
1
1
1
1
1
1
1
1
1
1
1
1
1
1
1
1
1
1
1
1
1
1
1
1
1
1
1
1
1
1
1
1
1
1
1
1
1
1
1
1
1
1
1
1
1
1
1
1
1
1
1
1
1
1
1
1
1
1
1
1
1
1
1
1
1
1
1
1
1
1
1
1
1
1
1
1
1
1
1
1
1
1
1
1
1
1
1
1
1
1
1
1
1
1
1
1
1
1
1
1
1
1
1
1
1
1
1
1
1
1
1
1
1
1
1
1
1
1
1
1
1
1
1
1
1
1
1
1
1
1
1
1
1
1
1
1
1
1
1
1
1
1
1
1
1
1
1
1
1
1
1
1
1
1
1
1
1
1
1
1
1
1
1
1
1
1
1
1
1
1
1
1
1
1
1
1
1
1
1
1
1
1
1
1
1
1
1
1
1
1
1
1
1
1
1
1
1
1
1
1
1
1
1
1
VECTORS v double
-0.90248166 -0.90248166 -0.90248166
-1.877603 -0.90248166 -0.90248166
-2.8461513 -0.90248166 -0.90248166
-3.8147034 -0.90248166 -0.90248166
-4.7832592 -0.90248166 -0.90248166
-5.7517925 -0.90248166 -0.90248166
-6.7203633 -0.90248166 -0.90248166
-7.6888966 -0.90248166 -0.90248166
-8.6574675 -0.90248166 -0.90248166
-9.6260008 -0.90248166 -0.90248166
-10.594572 -0.90248166 -0.90248166
-11.563105 -0.90248166 -0.90248166
-12.531676 -0.90248166 -0.90248166
-13.500209 -0.90248166 -0.90248166
-14.46878 -0.90248166 -0.90248166
-15.437313 -0.90248166 -0.90248166
-16.405884 -0.90248166 -0.90248166
-17.374417 -0.90248166 -0.90248166
-18.342988 -0.90248166 -0.90248166
-19.318091 -0.90248166 -0.90248166
-0.90248166 -1.877603 -0.90248166
-1.877603 -1.877603 -0.90248166
-2.8461513 -1.877603 -0.90248166
-3.8147034 -1.877603 -0.90248166
-4.7832592 -1.877603 -0.90248166
-5.7517925 -1.877603 -0.90248166
-6.7203633 -1.877603 -0.90248166
-7.6888966 -1.877603 -0.90248166
-8.6574675 -1.877603 -0.90248166
-9.6260008 -1.877603 -0.90248166
-10.594572 -1.877603 -0.90248166
-11.563105 -1.877603 -0.90248166
-12.531676 -1.877603 -0.90248166
-13.500209 -1.877603 -0.90248166
-14.46878 -1.877603 -0.90248166
-15.437313 -1.877603 -0.90248166
-16.405884 -1.877603 -0.90248166
-17.374417 -1.877603 -0.90248166
-18.342988 -1.877603 -0.90248166
-19.318091 -1.877603 -0.90248166
-0.90248166 -2.8461513 -0.90248166
-1.877603 -2.8461513 -0.90248166
-2.8461513 -2.8461513 -0.90248166
-3.8147034 -2.8461513 -0.90248166
-4.7832592 -2.8461513 -0.90248166
-5.7517925 -2.8461513 -0.90248166
-6.7203633 -2.8461513 -0.90248166
-7.6888966 -2.8461513 -0.90248166
-8.6574675 -2.8461513 -0.90248166
-9.6260008 -2.8461513 -0.90248166
-10.594572 -2.8461513 -0.90248166
-11.563105 -2.8461513 -0.90248166
-12.531676 -2.8461513 -0.90248166
-13.500209 -2.8461513 -0.90248166
-14.46878 -2.8461513 -0.90248166
-15.437313 -2.8461513 -0.90248166
-16.405884 -2.8461513 -0.90248166
-17.374417 -2.8461513 -0.90248166
-18.342988 -2.8461513 -0.90248166
-19.318091 -2.8461513 -0.90248166
-0.90248166 -3.8147034 -0.90248166
-1.877603 -3.8147034 -0.90248166
-2.8461513 -3.8147034 -0.90248166
-3.8147034 -3.8147034 -0.90248166
-4.7832592 -3.8147034 -0.90248166
-5.7517925 -3.8147034 -0.90248166
-6.7203633 -3.8147034 -0.90248166
-7.6888966 -3.8147034 -0.90248166
-8.6574675 -3.8147034 -0.90248166
-9.6260008 -3.8147034 -0.90248166
-10.594572 -3.8147034 -0.90248166
-11.563105 -3.8147034 -0.90248166
-12.531676 -3.8147034 -0.90248166
-13.500209 -3.8147034 -0.90248166
-14.46878 -3.8147034 -0.90248166
-15.437313 -3.8147034 -0.90248166
-16.405884 -3.8147034 -0.90248166
-17.374417 -3.8147034 -0.90248166
-18.342988 -3.8147034 -0.90248166
-19.318091 -3.8147034 -0.90248166
-0.90248166 -4.7832592 -0.90248166
-1.877603 -4.7832592 -0.90248166
-2.8461513 -4.7832592 -0.90248166
-3.8147034 -4.7832592 -0.90248166
-4.7832592 -4.7832592 -0.90248166
-5.7517925 -4.7832592 -0.90248166
-6.7203633 -4.7832592 -0.90248166
-7.6888966 -4.7832592 -0.90248166
-8.6574675 -4.7832592 -0.90248166
-9.6260008 -4.7832592 -0.90248166
-10.594572 -4.7832592 -0.90248166
-11.563105 -4.7832592 -0.90248166
-12.531676 -4.7832592 -0.90248166
-13.500209 -4.7832592 -0.90248166
-14.46878 -4.7832592 -0.90248166
-15.437313 -4.7832592 -0.90248166
-16.405884 -4.7832592 -0.90248166
-17.374417 -4.7832592 -0.90248166
-18.342988 -4.7832592 -0.90248166
-19.318091 -4.7832592 -0.90248166
-0.90248166 -5.7517925 -0.90248166
-1.877603 -5.7517925 -0.90248166
-2.8461513 -5.7517925 -0.90248166
-3.8147034 -5.7517925 -0.90248166
-4.7832592 -5.7517925 -0.90248166
-5.7517925 -5.7517925 -0.90248166
-6.7203633 -5.7517925 -0.90248166
-7.6888966 -5.7517925 -0.90248166
-8.6574675 -5.7517925 -0.90248166
-9.6260008 -5.7517925 -0.90248166
-10.594572 -5.7517925 -0.90248166
-11.563105 -5.7517925 -0.90248166
-12.531676 -5.7517925 -0.90248166
-13.500209 -5.7517925 -0.90248166
-14.46878 -5.7517925 -0.90248166
-15.437313 -5.7517925 -0.90248166
-16.405884 -5.7517925 -0.90248166
-17.374417 -5.7517925 -0.90248166
-18.342988 -5.7517925 -0.90248166
-19.318091 -5.7517925 -0.90248166
-0.90248166 -6.7203633 -0.90248166
-1.877603 -6.7203633 -0.90248166
-2.8461513 -6.7203633 -0.90248166
-3.8147034 -6.7203633 -0.90248166
-4.7832592 -6.7203633 -0.90248166
-5.7517925 -6.7203633 -0.90248166
-6.7203633 -6.7203633 -0.90248166
-7.6888966 -6.7203633 -0.90248166
-8.6574675 -6.7203633 -0.90248166
-9.6260008 -6.7203633 -0.90248166
-10.594572 -6.7203633 -0.90248166
-11.563105 -6.7203633 -0.90248166
-12.531676 -6.7203633 -0.90248166
-13.500209 -6.7203633 -0.90248166
-14.46878 -6.7203633 -0.90248166
-15.437313 -6.7203633 -0.90248166
-16.405884 -6.7203633 -0.90248166
-17.374417 -6.7203633 -0.90248166
-18.342988 -6.7203633 -0.90248166
-19.318091 -6.7203633 -0.90248166
-0.90248166 -7.6888966 -0.90248166
-1.877603 -7.6888966 -0.90248166
-2.8461513 -7.6888966 -0.90248166
-3.8147034 -7.6888966 -0.90248166
-4.7832592 -7.6888966 -0.90248166
-5.7517925 -7.6888966 -0.90248166
-6.7203633 -7.6888966 -0.90248166
-7.6888966 -7.6888966 -0.90248166
-8.6574675 -7.6888966 -0.90248166
-9.6260008 -7.6888966 -0.90248166
-10.594572 -7.6888966 -0.90248166
-11.563105 -7.6888966 -0.90248166
-12.531676 -7.6888966 -0.90248166
-13.500209 -7.6888966 -0.90248166
-14.46878 -7.6888966 -0.90248166
-15.437313 -7.6888966 -0.90248166
-16.405884 -7.6888966 -0.90248166
-17.374417 -7.6888966 -0.90248166
-18.342988 -7.6888966 -0.90248166
-19.318091 -7.6888966 -0.90248166
-0.90248166 -8.6574675 -0.90248166
-1.877603 -8.6574675 -0.90248166
-2.8461513 -8.6574675 -0.90248166
-3.8147034 -8.6574675 -0.90248166
-4.7832592 -8.6574675 -0.90248166
-5.7517925 -8.6574675 -0.90248166
-6.7203633 -8.6574675 -0.90248166
-7.6888966 -8.6574675 -0.90248166
-8.6574675 -8.6574675 -0.90248166
-9.6260008 -8.6574675 -0.90248166
-10.594572 -8.6574675 -0.90248166
-11.563105 -8.6574675 -0.90248166
-12.531676 -8.6574675 -0.90248166
-13.500209 -8.6574675 -0.90248166
-14.46878 -8.6574675 -0.90248166
-15.437313 -8.6574675 -0.90248166
-16.405884 -8.6574675 -0.90248166
-17.374417 -8.6574675 -0.90248166
-18.342988 -8.6574675 -0.90248166
-19.318091 -8.6574675 -0.90248166
-0.90248166 -9.6260008 -0.90248166
-1.877603 -9.6260008 -0.90248166
-2.8461513 -9.6260008 -0.90248166
-3.8147034 -9.6260008 -0.90248166
-4.7832592 -9.6260008 -0.90248166
-5.7517925 -9.6260008 -0.90248166
-6.7203633 -9.6260008 -0.90248166
-7.6888966 -9.6260008 -0.90248166
-8.6574675 -9.6260008 -0.90248166
-9.6260008 -9.6260008 -0.90248166
-10.594572 -9.6260008 -0.90248166
-11.563105 -9.6260008 -0.90248166
-12.531676 -9.6260008 -0.90248166
-13.500209 -9.6260008 -0.90248166
-14.46878 -9.6260008 -0.90248166
-15.437313 -9.6260008 -0.90248166
-16.405884 -9.6260008 -0.90248166
-17.374417 -9.6260008 -0.90248166
-18.342988 -9.6260008 -0.90248166
-19.318091 -9.6260008 -0.90248166
-0.90248166 -10.594572 -0.90248166
-1.877603 -10.594572 -0.90248166
-2.8461513 -10.594572 -0.90248166
-3.8147034 -10.594572 -0.90248166
-4.7832592 -10.594572 -0.90248166
-5.7517925 -10.594572 -0.90248166
-6.7203633 -10.594572 -0.90248166
-7.6888966 -10.594572 -0.90248166
-8.6574675 -10.594572 -0.90248166
-9.6260008 -10.594572 -0.90248166
-10.594572 -10.594572 -0.90248166
-11.563105 -10.594572 -0.90248166
-12.531676 -10.594572 -0.90248166
-13.500209 -10.594572 -0.90248166
-14.46878 -10.594572 -0.90248166
-15.437313 -10.594572 -0.90248166
-16.405884 -10.594572 -0.90248166
-17.374417 -10.594572 -0.90248166
-18.342988 -10.594572 -0.90248166
-19.318091 -10.594572 -0.90248166
-0.90248166 -11.563105 -0.90248166
-1.877603 -11.563105 -0.90248166
-2.8461513 -11.563105 -0.90248166
-3.8147034 -11.563105 -0.90248166
-4.7832592 -11.563105 -0.90248166
-5.7517925 -11.563105 -0.90248166
-6.7203633 -11.563105 -0.90248166
-7.6888966 -11.563105 -0.90248166
-8.6574675 -11.563105 -0.90248166
-9.6260008 -11.563105 -0.90248166
-10.594572 -11.563105 -0.90248166
-11.563105 -11.563105 -0.90248166
-12.531676 -11.563105 -0.90248166
-13.500209 -11.563105 -0.90248166
-14.46878 -11.563105 -0.90248166
-15.437313 -11.563105 -0.90248166
-16.405884 -11.563105 -0.90248166
-17.374417 -11.563105 -0.90248166
-18.342988 -11.563105 -0.90248166
-19.318091 -11.563105 -0.90248166
-0.90248166 -12.531676 -0.90248166
-1.877603 -12.531676 -0.90248166
-2.8461513 -12.531676 -0.90248166
-3.8147034 -12.531676 -0.90248166
-4.7832592 -12.531676 -0.90248166
-5.7517925 -12.531676 -0.90248166
-6.7203633 -12.531676 -0.90248166
-7.6888966 -12.531676 -0.90248166
-8.6574675 -12.531676 -0.90248166
-9.6260008 -12.531676 -0.90248166
-10.594572 -12.531676 -0.90248166
-11.563105 -12.531676 -0.90248166
-12.531676 -12.531676 -0.90248166
-13.500209 -12.531676 -0.90248166
-14.46878 -12.531676 -0.90248166
-15.437313 -12.531676 -0.90248166
-16.405884 -12.531676 -0.90248166
-17.374417 -12.531676 -0.90248166
-18.342988 -12.531676 -0.90248166
-19.318091 -12.531676 -0.90248166
-0.90248166 -13.500209 -0.90248166
-1.877603 -13.500209 -0.90248166
-2.8461513 -13.500209 -0.90248166
-3.8147034 -13.500209 -0.90248166
-4.7832592 -13.500209 -0.90248166
-5.7517925 -13.500209 -0.90248166
-6.7203633 -13.500209 -0.90248166
-7.6888966 -13.500209 -0.90248166
-8.6574675 -13.500209 -0.90248166
-9.6260008 -13.500209 -0.90248166
-10.594572 -13.500209 -0.90248166
-11.563105 -13.500209 -0.90248166
-12.531676 -13.500209 -0.90248166
-13.500209 -13.500209 -0.90248166
-14.46878 -13.500209 -0.90248166
-15.437313 -13.500209 -0.90248166
-16.405884 -13.500209 -0.90248166
-17.374417 -13.500209 -0.90248166
-18.342988 -13.500209 -0.90248166
-19.318091 -13.500209 -0.90248166
-0.90248166 -14.46878 -0.90248166
-1.877603 -14.46878 -0.90248166
-2.8461513 -14.46878 -0.90248166
-3.8147034 -14.46878 -0.90248166
-4.7832592 -14.46878 -0.90248166
-5.7517925 -14.46878 -0.90248166
-6.7203633 -14.46878 -0.90248166
-7.6888966 -14.46878 -0.90248166
-8.6574675 -14.46878 -0.90248166
-9.6260008 -14.46878 -0.90248166
-10.594572 -14.46878 -0.90248166
-11.563105 -14.46878 -0.90248166
-12.531676 -14.46878 -0.90248166
-13.500209 -14.46878 -0.90248166
-14.46878 -14.46878 -0.90248166
-15.437313 -14.46878 -0.90248166
-16.405884 -14.46878 -0.90248166
-17.374417 -14.46878 -0.90248166
-18.342988 -14.46878 -0.90248166
-19.318091 -14.46878 -0.90248166
-0.90248166 -15.437313 -0.90248166
-1.877603 -15.437313 -0.90248166
-2.8461513 -15.437313 -0.90248166
-3.8147034 -15.437313 -0.90248166
-4.7832592 -15.437313 -0.90248166
-5.7517925 -15.437313 -0.90248166
-6.7203633 -15.437313 -0.90248166
-7.6888966 -15.437313 -0.90248166
-8.6574675 -15.437313 -0.90248166
-9.6260008 -15.437313 -0.90248166
-10.594572 -15.437313 -0.90248166
-11.563105 -15.437313 -0.90248166
-12.531676 -15.437313 -0.90248166
-13.500209 -15.437313 -0.90248166
-14.46878 -15.437313 -0.90248166
-15.437313 -15.437313 -0.90248166
-16.405884 -15.437313 -0.90248166
-17.374417 -15.437313 -0.90248166
-18.342988 -15.437313 -0.90248166
-19.318091 -15.437313 -0.90248166
-0.90248166 -16.405884 -0.90248166
-1.877603 -16.405884 -0.90248166
-2.8461513 -16.405884 -0.90248166
-3.8147034 -16.405884 -0.90248166
-4.7832592 -16.405884 -0.90248166
-5.7517925 -16.405884 -0.90248166
-6.7203633 -16.405884 -0.90248166
-7.6888966 -16.405884 -0.90248166
-8.6574675 -16.405884 -0.90248166
-9.6260008 -16.405884 -0.90248166
-10.594572 -16.405884 -0.90248166
-11.563105 -16.405884 -0.90248166
-12.531676 -16.405884 -0.90248166
-13.500209 -16.405884 -0.90248166
-14.46878 -16.405884 -0.90248166
-15.437313 -16.405884 -0.90248166
-16.405884 -16.405884 -0.90248166
-17.374417 -16.405884 -0.90248166
-18.342988 -16.405884 -0.90248166
-19.318091 -16.405884 -0.90248166
-0.90248166 -17.374417 -0.90248166
-1.877603 -17.374417 -0.90248166
-2.8461513 -17.374417 -0.90248166
-3.8147034 -17.374417 -0.90248166
-4.7832592 -17.374417 -0.90248166
-5.7517925 -17.374417 -0.90248166
-6.7203633 -17.374417 -0.90248166
-7.6888966 -17.374417 -0.90248166
-8.6574675 -17.374417 -0.90248166
-9.6260008 -17.374417 -0.90248166
-10.594572 -17.374417 -0.90248166
-11.563105 -17.374417 -0.90248166
-12.531676 -17.374417 -0.90248166
-13.500209 -17.374417 -0.90248166
-14.46878 -17.374417 -0.90248166
-15.437313 -17.374417 -0.90248166
-16.405884 -17.374417 -0.90248166
-17.374417 -17.374417 -0.90248166
-18.342988 -17.374417 -0.90248166
-19.318091 -17.374417 -0.90248166
-0.90248166 -18.342988 -0.90248166
-1.877603 -18.342988 -0.90248166
-2.8461513 -18.342988 -0.90248166
-3.8147034 -18.342988 -0.90248166
-4.7832592 -18.342988 -0.90248166
-5.7517925 -18.342988 -0.90248166
-6.7203633 -18.342988 -0.90248166
-7.6888966 -18.342988 -0.90248166
-8.6574675 -18.342988 -0.90248166
-9.6260008 -18.342988 -0.90248166
-10.594572 -18.342988 -0.90248166
-11.563105 -18.342988 -0.90248166
-12.531676 -18.342988 -0.90248166
-13.500209 -18.342988 -0.90248166
-14.46878 -18.342988 -0.90248166
-15.437313 -18.342988 -0.90248166
-16.405884 -18.342988 -0.90248166
-17.374417 -18.342988 -0.90248166
-18.342988 -18.342988 -0.90248166
-19.318091 -18.342988 -0.90248166
-0.90248166 -19.318091 -0.90248166
-1.877603 -19.318091 -0.90248166
-2.8461513 -19.318091 -0.90248166
-3.8147034 -19.318091 -0.90248166
-4.7832592 -19.318091 -0.90248166
-5.7517925 -19.318091 -0.90248166
-6.7203633 -19.318091 -0.90248166
-7.6888966 -19.318091 -0.90248166
-8.6574675 -19.318091 -0.90248166
-9.6260008 -19.318091 -0.90248166
-10.594572 -19.318091 -0.90248166
-11.563105 -19.318091 -0.90248166
-12.531676 -19.318091 -0.90248166
-13.500209 -19.318091 -0.90248166
-14.46878 -19.318091 -0.90248166
-15.437313 -19.318091 -0.90248166
-16.405884 -19.318091 -0.90248166
-17.374417 -19.318091 -0.90248166
-18.342988 -19.318091 -0.90248166
-19.318091 -19.318091 -0.90248166
-0.90248166 -0.90248166 -1.877603
-1.877603 -0.90248166 -1.877603
-2.8461513 -0.90248166 -1.877603
-3.8147034 -0.90248166 -1.877603
-4.7832592 -0.90248166 -1.877603
-5.7517925 -0.90248166 -1.877603
-6.7203633 -0.90248166 -1.877603
-7.6888966 -0.90248166 -1.877603
-8.6574675 -0.90248166 -1.877603
-9.6260008 -0.90248166 -1.877603
-10.594572 -0.90248166 -1.877603