# vtk DataFile Version 4.0
hesp visualization file
ASCII
DATASET UNSTRUCTURED_GRID
POINTS 3000 double
0.3756169 0.3756169 0.3756169
2.8172886 0.3756169 0.3756169
5.2612524 0.3756169 0.3756169
7.7052257 0.3756169 0.3756169
10.149208 0.3756169 0.3756169
12.593134 0.3756169 0.3756169
15.037155 0.3756169 0.3756169
17.481081 0.3756169 0.3756169
19.925102 0.3756169 0.3756169
22.369027 0.3756169 0.3756169
24.813048 0.3756169 0.3756169
27.256974 0.3756169 0.3756169
29.700995 0.3756169 0.3756169
32.144921 0.3756169 0.3756169
34.588941 0.3756169 0.3756169
37.032867 0.3756169 0.3756169
39.476888 0.3756169 0.3756169
41.920814 0.3756169 0.3756169
44.364834 0.3756169 0.3756169
46.806459 0.3756169 0.3756169
0.3756169 2.8172886 0.3756169
2.8172886 2.8172886 0.3756169
5.2612524 2.8172886 0.3756169
7.7052257 2.8172886 0.3756169
10.149208 2.8172886 0.3756169
12.593134 2.8172886 0.3756169
15.037155 2.8172886 0.3756169
17.481081 2.8172886 0.3756169
19.925102 2.8172886 0.3756169
22.369027 2.8172886 0.3756169
24.813048 2.8172886 0.3756169
27.256974 2.8172886 0.3756169
29.700995 2.8172886 0.3756169
32.144921 2.8172886 0.3756169
34.588941 2.8172886 0.3756169
37.032867 2.8172886 0.3756169
39.476888 2.8172886 0.3756169
41.920814 2.8172886 0.3756169
44.364834 2.8172886 0.3756169
46.806459 2.8172886 0.3756169
0.3756169 5.2612524 0.3756169
2.8172886 5.2612524 0.3756169
5.2612524 5.2612524 0.3756169
7.7052257 5.2612524 0.3756169
10.149208 5.2612524 0.3756169
12.593134 5.2612524 0.3756169
15.037155 5.2612524 0.3756169
17.481081 5.2612524 0.3756169
19.925102 5.2612524 0.3756169
22.369027 5.2612524 0.3756169
24.813048 5.2612524 0.3756169
27.256974 5.2612524 0.3756169
29.700995 5.2612524 0.3756169
32.144921 5.2612524 0.3756169
34.588941 5.2612524 0.3756169
37.032867 5.2612524 0.3756169
39.476888 5.2612524 0.3756169
41.920814 5.2612524 0.3756169
44.364834 5.2612524 0.3756169
46.806459 5.2612524 0.3756169
0.3756169 7.7052257 0.3756169
2.8172886 7.7052257 0.3756169
5.2612524 7.7052257 0.3756169
7.7052257 7.7052257 0.3756169
10.149208 7.7052257 0.3756169
12.593134 7.7052257 0.3756169
15.037155 7.7052257 0.3756169
17.481081 7.7052257 0.3756169
19.925102 7.7052257 0.3756169
22.369027 7.7052257 0.3756169
24.813048 7.7052257 0.3756169
27.256974 7.7052257 0.3756169
29.700995 7.7052257 0.3756169
32.144921 7.7052257 0.3756169
34.588941 7.7052257 0.3756169
37.032867 7.7052257 0.3756169
39.476888 7.7052257 0.3756169
41.920814 7.7052257 0.3756169
44.364834 7.7052257 0.3756169
46.806459 7.7052257 0.3756169
0.3756169 10.149208 0.3756169
2.8172886 10.149208 0.3756169
5.2612524 10.149208 0.3756169
7.7052257 10.149208 0.3756169
10.149208 10.149208 0.3756169
12.593134 10.149208 0.3756169
15.037155 10.149208 0.3756169
17.481081 10.149208 0.3756169
19.925102 10.149208 0.3756169
22.369027 10.149208 0.3756169
24.813048 10.149208 0.3756169
27.256974 10.149208 0.3756169
29.700995 10.149208 0.3756169
32.144921 10.149208 0.3756169
34.588941 10.149208 0.3756169
37.032867 10.149208 0.3756169
39.476888 10.149208 0.3756169
41.920814 10.149208 0.3756169
44.364834 10.149208 0.3756169
46.806459 10.149208 0.3756169
0.3756169 12.593134 0.3756169
2.8172886 12.593134 0.3756169
5.2612524 12.593134 0.3756169
7.7052257 12.593134 0.3756169
10.149208 12.593134 0.3756169
12.593134 12.593134 0.3756169
15.037155 12.593134 0.3756169
17.481081 12.593134 0.3756169
19.925102 12.593134 0.3756169
22.369027 12.593134 0.3756169
24.813048 12.593134 0.3756169
27.256974 12.593134 0.3756169
29.700995 12.593134 0.3756169
32.144921 12.593134 0.3756169
34.588941 12.593134 0.3756169
37.032867 12.593134 0.3756169
39.476888 12.593134 0.3756169
41.920814 12.593134 0.3756169
44.364834 12.593134 0.3756169
46.806459 12.593134 0.3756169
0.3756169 15.037155 0.3756169
2.8172886 15.037155 0.3756169
5.2612524 15.037155 0.3756169
7.7052257 15.037155 0.3756169
10.149208 15.037155 0.3756169
12.593134 15.037155 0.3756169
15.037155 15.037155 0.3756169
17.481081 15.037155 0.3756169
19.925102 15.037155 0.3756169
22.369027 15.037155 0.3756169
24.813048 15.037155 0.3756169
27.256974 15.037155 0.3756169
29.700995 15.037155 0.3756169
32.144921 15.037155 0.3756169
34.588941 15.037155 0.3756169
37.032867 15.037155 0.3756169
39.476888 15.037155 0.3756169
41.920814 15.037155 0.3756169
44.364834 15.037155 0.3756169
46.806459 15.037155 0.3756169
0.3756169 17.481081 0.3756169
2.8172886 17.481081 0.3756169
5.2612524 17.481081 0.3756169
7.7052257 17.481081 0.3756169
10.149208 17.481081 0.3756169
12.593134 17.481081 0.3756169
15.037155 17.481081 0.3756169
17.481081 17.481081 0.3756169
19.925102 17.481081 0.3756169
22.369027 17.481081 0.3756169
24.813048 17.481081 0.3756169
27.256974 17.481081 0.3756169
29.700995 17.481081 0.3756169
32.144921 17.481081 0.3756169
34.588941 17.481081 0.3756169
37.032867 17.481081 0.3756169
39.476888 17.481081 0.3756169
41.920814 17.481081 0.3756169
44.364834 17.481081 0.3756169
46.806459 17.481081 0.3756169
0.3756169 19.925102 0.3756169
2.8172886 19.925102 0.3756169
5.2612524 19.925102 0.3756169
7.7052257 19.925102 0.3756169
10.149208 19.925102 0.3756169
12.593134 19.925102 0.3756169
15.037155 19.925102 0.3756169
17.481081 19.925102 0.3756169
19.925102 19.925102 0.3756169
22.369027 19.925102 0.3756169
24.813048 19.925102 0.3756169
27.256974 19.925102 0.3756169
29.700995 19.925102 0.3756169
32.144921 19.925102 0.3756169
34.588941 19.925102 0.3756169
37.032867 19.925102 0.3756169
39.476888 19.925102 0.3756169
41.920814 19.925102 0.3756169
44.364834 19.925102 0.3756169
46.806459 19.925102 0.3756169
0.3756169 22.369027 0.3756169
2.8172886 22.369027 0.3756169
5.2612524 22.369027 0.3756169
7.7052257 22.369027 0.3756169
10.149208 22.369027 0.3756169
12.593134 22.369027 0.3756169
15.037155 22.369027 0.3756169
17.481081 22.369027 0.3756169
19.925102 22.369027 0.3756169
22.369027 22.369027 0.3756169
24.813048 22.369027 0.3756169
27.256974 22.369027 0.3756169
29.700995 22.369027 0.3756169
32.144921 22.369027 0.3756169
34.588941 22.369027 0.3756169
37.032867 22.369027 0.3756169
39.476888 22.369027 0.3756169
41.920814 22.369027 0.3756169
44.364834 22.369027 0.3756169
46.806459 22.369027 0.3756169
0.3756169 24.813048 0.3756169
2.8172886 24.813048 0.3756169
5.2612524 24.813048 0.3756169
7.7052257 24.813048 0.3756169
10.149208 24.813048 0.3756169
12.593134 24.813048 0.3756169
15.037155 24.813048 0.3756169
17.481081 24.813048 0.3756169
19.925102 24.813048 0.3756169
22.369027 24.813048 0.3756169
24.813048 24.813048 0.3756169
27.256974 24.813048 0.3756169
29.700995 24.813048 0.3756169
32.144921 24.813048 0.3756169
34.588941 24.813048 0.3756169
37.032867 24.813048 0.3756169
39.476888 24.813048 0.3756169
41.920814 24.813048 0.3756169
44.364834 24.813048 0.3756169
46.806459 24.813048 0.3756169
0.3756169 27.256974 0.3756169
2.8172886 27.256974 0.3756169
5.2612524 27.256974 0.3756169
7.7052257 27.256974 0.3756169
10.149208 27.256974 0.3756169
12.593134 27.256974 0.3756169
15.037155 27.256974 0.3756169
17.481081 27.256974 0.3756169
19.925102 27.256974 0.3756169
22.369027 27.256974 0.3756169
24.813048 27.256974 0.3756169
27.256974 27.256974 0.3756169
29.700995 27.256974 0.3756169
32.144921 27.256974 0.3756169
34.588941 27.256974 0.3756169
37.032867 27.256974 0.3756169
39.476888 27.256974 0.3756169
41.920814 27.256974 0.3756169
44.364834 27.256974 0.3756169
46.806459 27.256974 0.3756169
0.3756169 29.700995 0.3756169
2.8172886 29.700995 0.3756169
5.2612524 29.700995 0.3756169
7.7052257 29.700995 0.3756169
10.149208 29.700995 0.3756169
12.593134 29.700995 0.3756169
15.037155 29.700995 0.3756169
17.481081 29.700995 0.3756169
19.925102 29.700995 0.3756169
22.369027 29.700995 0.3756169
24.813048 29.700995 0.3756169
27.256974 29.700995 0.3756169
29.700995 29.700995 0.3756169
32.144921 29.700995 0.3756169
34.588941 29.700995 0.3756169
37.032867 29.700995 0.3756169
39.476888 29.700995 0.3756169
41.920814 29.700995 0.3756169
44.364834 29.700995 0.3756169
46.806459 29.700995 0.3756169
0.3756169 32.144921 0.3756169
2.8172886 32.144921 0.3756169
5.2612524 32.144921 0.3756169
7.7052257 32.144921 0.3756169
10.149208 32.144921 0.3756169
12.593134 32.144921 0.3756169
15.037155 32.144921 0.3756169
17.481081 32.144921 0.3756169
19.925102 32.144921 0.3756169
22.369027 32.144921 0.3756169
24.813048 32.144921 0.3756169
27.256974 32.144921 0.3756169
29.700995 32.144921 0.3756169
32.144921 32.144921 0.3756169
34.588941 32.144921 0.3756169
37.032867 32.144921 0.3756169
39.476888 32.144921 0.3756169
41.920814 32.144921 0.3756169
44.364834 32.144921 0.3756169
46.806459 32.144921 0.3756169
0.3756169 34.588941 0.3756169
2.8172886 34.588941 0.3756169
5.2612524 34.588941 0.3756169
7.7052257 34.588941 0.3756169
10.149208 34.588941 0.3756169
12.593134 34.588941 0.3756169
15.037155 34.588941 0.3756169
17.481081 34.588941 0.3756169
19.925102 34.588941 0.3756169
22.369027 34.588941 0.3756169
24.813048 34.588941 0.3756169
27.256974 34.588941 0.3756169
29.700995 34.588941 0.3756169
32.144921 34.588941 0.3756169
34.588941 34.588941 0.3756169
37.032867 34.588941 0.3756169
39.476888 34.588941 0.3756169
41.920814 34.588941 0.3756169
44.364834 34.588941 0.3756169
46.806459 34.588941 0.3756169
0.3756169 37.032867 0.3756169
2.8172886 37.032867 0.3756169
5.2612524 37.032867 0.3756169
7.7052257 37.032867 0.3756169
10.149208 37.032867 0.3756169
12.593134 37.032867 0.3756169
15.037155 37.032867 0.3756169
17.481081 37.032867 0.3756169
19.925102 37.032867 0.3756169
22.369027 37.032867 0.3756169
24.813048 37.032867 0.3756169
27.256974 37.032867 0.3756169
29.700995 37.032867 0.3756169
32.144921 37.032867 0.3756169
34.588941 37.032867 0.3756169
37.032867 37.032867 0.3756169
39.476888 37.032867 0.3756169
41.920814 37.032867 0.3756169
44.364834 37.032867 0.3756169
46.806459 37.032867 0.3756169
0.3756169 39.476888 0.3756169
2.8172886 39.476888 0.3756169
5.2612524 39.476888 0.3756169
7.7052257 39.476888 0.3756169
10.149208 39.476888 0.3756169
12.593134 39.476888 0.3756169
15.037155 39.476888 0.3756169
17.481081 39.476888 0.3756169
19.925102 39.476888 0.3756169
[...]
POINT_DATA 3000
SCALARS m double
LOOKUP_TABLE default
1
1
1
1
1
1
1
1
1
1
1
1
1
1
1
1
1
1
1
1
1
1
1
1
1
1
1
1
1
1
1
1
1
1
1
1
1
1
1
1
1
1
1
1
1
1
1
1
1
1
1
1
1
1
1
1
1
1
1
1
1
1
1
1
1
1
1
1
1
1
1
1
1
1
1
1
1
1
1
1
1
1
1
1
1
1
1
1
1
1
1
1
1
1
1
1
1
1
1
1
1
1
1
1
1
1
1
1
1
1
1
1
1
1
1
1
1
1
1
1
1
1
1
1
1
1
1
1
1
1
1
1
1
1
1
1
1
1
1
1
1
1
1
1
1
1
1
1
1
1
1
1
1
1
1
1
1
1
1
1
1
1
1
1
1
1
1
1
1
1
1
1
1
1
1
1
1
1
1
1
1
1
1
1
1
1
1
1
1
1
1
1
1
1
1
1
1
1
1
1
1
1
1
1
1
1
1
1
1
1
1
1
1
1
1
1
1
1
1
1
1
1
1
1
1
1
1
1
1
1
1
1
1
1
1
1
1
1
1
1
1
1
1
1
1
1
1
1
1
1
1
1
1
1
1
1
1
1
1
1
1
1
1
1
1
1
1
1
1
1
1
1
1
1
1
1
1
1
1
1
1
1
1
1
1
1
1
1
1
1
1
1
1
1
1
1
1
1
1
1
1
1
1
1
1
1
1
1
1
1
1
1
1
1
1
1
1
1
1
1
1
1
1
1
1
1
1
1
1
1
1
1
1
1
1
1
1
1
1
1
1
1
1
1
1
1
1
1
1
1
1
1
1
1
1
1
1
1
1
1
1
1
1
1
1
1
1
1
1
1
1
1
1
1
1
1
1
1
1
1
1
1
1
1
1
1
1
1
1
1
1
1
1
1
1
1
1
1
1
1
1
1
1
1
1
1
1
1
1
1
1
1
1
1
1
1
1
1
1
1
1
1
1
1
1
1
1
1
1
1
1
1
1
1
1
1
1
1
1
1
1
1
1
1
1
1
1
1
1
1
1
1
1
1
1
1
1
1
1
1
1
1
1
1
1
1
1
1
1
1
1
1
1
1
1
1
1
1
1
1
1
1
1
1
1
1
1
1
1
1
1
1
1
1
1
1
1
1
1
1
1
1
1
1
1
1
1
1
1
1
1
1
1
1
1
1
1
1
1
1
1
1
1
1
1
1
1
1
1
1
1
1
1
1
1
1
1
1
1
1
1
1
1
1
1
1
1
1
1
1
1
1
1
1
1
1
1
1
1
1
1
1
1
1
1
1
1
1
1
1
1
1
1
1
1
1
1
1
1
1
1
1
1
1
1
1
1
1
1
1
1
1
1
1
1
1
1
1
1
1
1
1
1
1
1
1
1
1
1
1
1
1
1
1
1
1
1
1
1
1
1
1
1
1
1
1
1
1
1
1
1
1
1
1
1
1
1
1
1
1
1
1
1
1
1
1
1
1
1
1
1
1
1
1
1
1
1
1
1
1
1
1
1
1
1
1
1
1
1
1
1
1
1
1
1
1
1
1
1
1
1
1
1
1
1
1
1
1
1
1
1
1
1
1
1
1
1
1
1
1
1
1
1
1
1
1
1
1
1
1
1
1
1
1
1
1
1
1
1
1
1
1
1
1
1
1
1
1
1
1
1
1
1
1
1
1
1
1
1
1
1
1
1
1
1
1
1
1
1
1
1
1
1
1
1
1
1
1
1
1
1
1
1
1
1
1
1
1
1
1
1
1
1
1
1
1
1
1
1
1
1
1
1
1
1
1
1
1
1
1
1
1
1
1
1
1
1
1
1
1
1
1
1
1
1
1
1
1
1
1
1
1
1
1
1
1
1
1
1
1
1
1
1
1
1
1
1
1
1
1
1
1
1
1
1
1
1
1
1
1
1
1
1
1
1
1
1
1
1
1
1
1
1
1
1
1
1
1
1
1
1
1
1
1
1
1
1
1
1
1
1
1
1
1
1
1
1
1
1
1
1
1
1
1
1
1
1
1
1
1
1
1
1
1
1
1
1
1
1
1
1
1
1
1
1
1
1
1
1
1
1
1
1
1
1
1
1
1
1
1
1
1
1
1
1
1
1
1
1
1
1
1
1
1
1
1
1
1
1
1
1
1
1
1
1
1
1
1
1
1
1
1
1
1
1
1
1
1
1
1
1
1
1
1
1
1
1
1
1
1
1
1
1
1
1
1
1
1
1
1
1
1
1
1
1
1
1
1
1
1
1
1
1
1
1
1
1
1
1
1
1
1
1
1
1
1
1
1
1
1
1
1
1
1
1
1
1
1
1
1
1
1
1
1
1
1
1
1
1
1
1
1
1
1
1
1
1
1
1
1
1
1
1
1
1
1
1
1
1
1
1
1
1
1
1
1
1
1
1
1
1
1
1
1
1
1
1
1
1
1
1
1
1
1
1
1
1
1
1
1
1
1
1
1
1
1
1
1
1
1
1
1
1
1
1
1
1
1
1
1
1
1
1
1
1
1
1
1
1
1
1
1
1
1
1
1
1
1
1
1
1
1
1
1
1
1
1
1
1
1
1
1
1
1
1
1
1
1
1
1
1
1
1
1
1
1
1
1
1
1
1
1
1
1
1
1
1
1
1
1
1
1
1
1
1
1
1
1
1
1
1
1
1
1
1
1
1
1
1
1
1
1
1
1
1
1
1
1
1
1
1
1
1
1
1
1
1
1
1
1
1
1
1
1
1
1
1
1
1
1
1
1
1
1
1
1
1
1
1
1
1
1
1
1
1
1
1
1
1
1
1
1
1
1
1
1
1
1
1
1
1
1
1
1
1
1
1
1
1
1
1
1
1
1
1
1
1
1
1
1
1
1
1
1
1
1
1
1
1
1
1
1
1
1
1
1
1
1
1
1
1
1
1
1
1
1
1
1
1
1
1
1
1
1
1
1
1
1
1
1
1
1
1
1
1
1
1
1
1
1
1
1
1
1
1
1
1
1
1
1
1
1
1
1
1
1
1
1
1
1
1
1
1
1
1
1
1
1
1
1
1
1
1
1
1
1
1
1
1
1
1
1
1
1
1
1
1
1
1
1
1
1
1
1
1
1
1
1
1
1
1
1
1
1
1
1
1
1
1
1
1
1
1
1
1
1
1
1
1
1
1
1
1
1
1
1
1
1
1
1
1
1
1
1
1
1
1
1
1
1
1
1
1
1
1
1
1
1
1
1
1
1
1
1
1
1
1
1
1
1
1
1
1
1
1
1
1
1
1
1
1
1
1
1
1
1
1
1
1
1
1
1
1
1
1
1
1
1
1
1
1
1
1
1
1
1
1
1
1
1
1
1
1
1
1
1
1
1
1
1
1
1
1
1
1
1
1
1
1
1
1
1
1
1
1
1
1
1
1
1
1
1
1
1
1
1
1
1
1
1
1
1
1
1
1
1
1
1
1
1
1
1
1
1
1
1
1
1
1
1
1
1
1
1
1
1
1
1
1
1
1
1
1
1
1
1
1
1
1
1
1
1
1
1
1
1
1
1
1
1
1
1
1
1
1
1
1
1
1
1
1
1
1
1
1
1
1
1
1
1
1
1
1
1
1
1
1
1
1
1
1
1
1
1
1
1
1
1
1
1
1
1
1
1
1
1
1
1
1
1
1
1
1
1
1
1
1
1
1
1
1
1
1
1
1
1
1
1
1
1
1
1
1
1
1
1
1
1
1
1
1
1
1
1
1
1
1
1
1
1
1
1
1
1
1
1
1
1
1
1
1
1
1
1
1
1
1
1
1
1
1
1
1
1
1
1
1
1
1
1
1
1
1
1
1
1
1
1
1
1
1
1
1
1
1
1
1
1
1
1
1
1
1
1
1
1
1
1
1
1
1
1
1
1
1
1
1
1
1
1
1
1
1
1
1
1
1
1
1
1
1
1
1
1
1
1
1
1
1
1
1
1
1
1
1
1
1
1
1
1
1
1
1
1
1
1
1
1
1
1
1
1
1
1
1
1
1
1
1
1
1
1
1
1
1
1
1
1
1
1
1
1
1
1
1
1
1
1
1
1
1
1
1
1
1
1
1
1
1
1
1
1
1
1
1
1
1
1
1
1
1
1
1
1
1
1
1
1
1
1
1
1
1
1
1
1
1
1
1
1
1
1
1
1
1
1
1
1
1
1
1
1
1
1
1
1
1
1
1
1
1
1
1
1
1
1
1
1
1
1
1
1
1
1
1
1
1
1
1
1
1
1
1
1
1
1
1
1
1
1
1
1
1
1
1
1
1
1
1
1
1
1
1
1
1
1
1
1
1
1
1
1
1
1
1
1
1
1
1
1
1
1
1
1
1
1
1
1
1
1
1
1
1
1
1
1
1
1
1
1
1
1
1
1
1
1
1
1
1
1
1
1
1
1
1
1
1
1
1
1
1
1
1
1
1
1
1
1
1
1
1
1
1
1
1
1
1
1
1
1
1
1
1
1
1
1
1
1
1
1
1
1
1
1
1
1
1
1
1
1
1
1
1
1
1
1
1
1
1
1
1
1
1
1
1
1
1
1
1
1
1
1
1
1
1
1
1
1
1
1
1
1
1
1
1
1
1
1
1
1
1
1
1
1
1
1
1
1
1
1
1
1
1
1
1
1
1
1
1
1
1
1
1
1
1
1
1
1
1
1
1
1
1
1
1
1
1
1
1
1
1
1
1
1
1
1
1
1
1
1
1
1
1
1
1
1
1
1
1
1
1
1
1
1
1
1
1
1
1
1
1
1
1
1
1
1
1
1
1
1
1
1
1
1
1
1
1
1
1
1
1
1
1
1
1
1
1
1
1
1
1
1
1
1
1
1
1
1
1
1
1
1
1
1
1
1
1
1
1
1
1
1
1
1
1
1
1
1
1
1
1
1
1
1
1
1
1
1
1
1
1
1
1
1
1
1
1
1
1
1
1
1
1
1
1
1
1
1
1
1
1
1
1
1
1
1
1
1
1
1
1
1
1
1
1
1
1
1
1
1
1
1
1
1
1
1
1
1
1
1
1
1
1
1
1
1
1
1
1
1
1
1
1
1
1
1
1
1
1
1
1
1
1
1
1
1
1
1
1
1
1
1
1
1
1
1
1
1
1
1
1
1
1
1
1
1
1
1
1
1
1
1
1
1
1
1
1
1
1
1
1
1
1
1
1
1
1
1
1
1
1
1
1
1
1
1
1
1
1
1
1
1
1
1
1
1
1
1
1
1
1
1
1
1
1
1
1
1
1
1
1
1
1
1
1
1
1
1
1
1
1
1
1
1
1
1
1
1
1
1
1
1
1
1
1
1
1
1
1
1
1
1
1
1
1
1
1
1
1
1
1
1
1
1
1
1
1
1
1
1
1
1
1
1
1
1
1
1
1
1
1
1
1
1
1
1
1
1
1
1
1
1
1
1
1
1
1
1
1
1
1
1
1
1
1
1
1
1
1
1
1
1
1
1
1
1
1
1
1
1
1
1
1
1
1
1
1
1
1
1
1
1
1
1
1
1
1
1
1
1
1
1
1
1
1
1
1
1
1
1
1
1
1
1
1
1
1
1
1
1
1
1
1
1
1
1
1
1
1
1
1
1
1
1
1
1
1
1
1
1
1
1
1
1
1
1
1
1
1
1
1
1
1
1
1
1
1
1
1
1
1
1
1
1
1
1
1
1
1
1
1
1
1
1
1
1
1
1
1
1
1
1
1
1
1
1
1
1
1
1
1
1
1
1
1
1
1
1
1
1
1
1
1
1
1
1
1
1
1
1
1
1
1
1
1
1
1
1
1
1
1
1
1
1
1
1
1
1
1
1
1
1
1
1
1
1
1
1
1
1
1
1
1
1
1
1
1
1
1
1
1
1
1
1
1
1
1
1
1
1
1
1
1
1
1
1
1
1
1
1
1
1
1
1
1
1
1
1
1
1
1
1
1
1
1
1
1
1
1
1
1
1
1
1
1
1
1
1
1
1
1
1
1
1
1
1
1
1
1
1
1
1
1
1
1
1
1
1
1
1
1
1
1
1
1
1
1
1
1
1
1
1
1
1
1
1
1
1
1
1
1
1
1
1
1
1
1
1
1
1
1
1
1
1
1
1
1
1
1
1
1
1
1
1
1
1
1
1
1
1
1
1
1
1
1
1
1
1
1
1
1
1
1
1
1
1
1
1
1
1
1
1
1
1
1
1
1
1
1
1
1
1
1
1
1
1
1
1
1
1
1
1
1
1
1
1
1
1
1
1
1
1
1
1
1
1
1
1
1
1
1
1
1
1
1
1
1
1
1
1
1
1
1
1
1
1
1
1
1
1
1
1
1
1
1
1
1
1
1
1
1
1
1
1
1
1
1
1
1
1
1
1
1
1
1
1
1
1
1
1
1
1
1
1
1
1
1
1
1
1
1
1
1
1
1
1
1
1
1
1
1
1
1
1
1
1
1
1
1
1
1
1
1
1
1
1
1
1
1
1
1
1
1
1
1
1
1
1
1
1
1
1
1
1
1
1
1
1
1
1
1
1
1
1
1
1
1
1
1
1
1
1
1
1
1
1
1
1
1
1
1
1
1
1
1
1
1
1
1
1
1
1
1
1
1
1
1
1
1
1
1
1
1
1
1
1
1
1
1
1
1
1
1
1
1
1
1
1
1
1
1
1
1
1
1
1
1
1
1
1
1
1
1
1
1
1
1
1
1
1
1
1
1
1
1
1
1
1
1
1
1
1
1
1
1
1
1
1
1
1
1
1
1
1
1
1
1
1
1
1
1
1
1
1
1
1
1
1
1
1
VECTORS v double
-0.76617613 -0.76617613 -0.76617613
-1.5963802 -0.76617613 -0.76617613
-2.4198617 -0.76617613 -0.76617613
-3.2433464 -0.76617613 -0.76617613
-4.0668343 -0.76617613 -0.76617613
-4.890303 -0.76617613 -0.76617613
-5.7138037 -0.76617613 -0.76617613
-6.5372724 -0.76617613 -0.76617613
-7.3607731 -0.76617613 -0.76617613
-8.1842418 -0.76617613 -0.76617613
-9.0077425 -0.76617613 -0.76617613
-9.8312112 -0.76617613 -0.76617613
-10.654712 -0.76617613 -0.76617613
-11.478181 -0.76617613 -0.76617613
-12.301681 -0.76617613 -0.76617613
-13.12515 -0.76617613 -0.76617613
-13.948651 -0.76617613 -0.76617613
-14.772119 -0.76617613 -0.76617613
-15.59562 -0.76617613 -0.76617613
-16.425808 -0.76617613 -0.76617613
-0.76617613 -1.5963802 -0.76617613
-1.5963802 -1.5963802 -0.76617613
-2.4198617 -1.5963802 -0.76617613
-3.2433464 -1.5963802 -0.76617613
-4.0668343 -1.5963802 -0.76617613
-4.890303 -1.5963802 -0.76617613
-5.7138037 -1.5963802 -0.76617613
-6.5372724 -1.5963802 -0.76617613
-7.3607731 -1.5963802 -0.76617613
-8.1842418 -1.5963802 -0.76617613
-9.0077425 -1.5963802 -0.76617613
-9.8312112 -1.5963802 -0.76617613
-10.654712 -1.5963802 -0.76617613
-11.478181 -1.5963802 -0.76617613
-12.301681 -1.5963802 -0.76617613
-13.12515 -1.5963802 -0.76617613
-13.948651 -1.5963802 -0.76617613
-14.772119 -1.5963802 -0.76617613
-15.59562 -1.5963802 -0.76617613
-16.425808 -1.5963802 -0.76617613
-0.76617613 -2.4198617 -0.76617613
-1.5963802 -2.4198617 -0.76617613
-2.4198617 -2.4198617 -0.76617613
-3.2433464 -2.4198617 -0.76617613
-4.0668343 -2.4198617 -0.76617613
-4.890303 -2.4198617 -0.76617613
-5.7138037 -2.4198617 -0.76617613
-6.5372724 -2.4198617 -0.76617613
-7.3607731 -2.4198617 -0.76617613
-8.1842418 -2.4198617 -0.76617613
-9.0077425 -2.4198617 -0.76617613
-9.8312112 -2.4198617 -0.76617613
-10.654712 -2.4198617 -0.76617613
-11.478181 -2.4198617 -0.76617613
-12.301681 -2.4198617 -0.76617613
-13.12515 -2.4198617 -0.76617613
-13.948651 -2.4198617 -0.76617613
-14.772119 -2.4198617 -0.76617613
-15.59562 -2.4198617 -0.76617613
-16.425808 -2.4198617 -0.76617613
-0.76617613 -3.2433464 -0.76617613
-1.5963802 -3.2433464 -0.76617613
-2.4198617 -3.2433464 -0.76617613
-3.2433464 -3.2433464 -0.76617613
-4.0668343 -3.2433464 -0.76617613
-4.890303 -3.2433464 -0.76617613
-5.7138037 -3.2433464 -0.76617613
-6.5372724 -3.2433464 -0.76617613
-7.3607731 -3.2433464 -0.76617613
-8.1842418 -3.2433464 -0.76617613
-9.0077425 -3.2433464 -0.76617613
-9.8312112 -3.2433464 -0.76617613
-10.654712 -3.2433464 -0.76617613
-11.478181 -3.2433464 -0.76617613
-12.301681 -3.2433464 -0.76617613
-13.12515 -3.2433464 -0.76617613
-13.948651 -3.2433464 -0.76617613
-14.772119 -3.2433464 -0.76617613
-15.59562 -3.2433464 -0.76617613
-16.425808 -3.2433464 -0.76617613
-0.76617613 -4.0668343 -0.76617613
-1.5963802 -4.0668343 -0.76617613
-2.4198617 -4.0668343 -0.76617613
-3.2433464 -4.0668343 -0.76617613
-4.0668343 -4.0668343 -0.76617613
-4.890303 -4.0668343 -0.76617613
-5.7138037 -4.0668343 -0.76617613
-6.5372724 -4.0668343 -0.76617613
-7.3607731 -4.0668343 -0.76617613
-8.1842418 -4.0668343 -0.76617613
-9.0077425 -4.0668343 -0.76617613
-9.8312112 -4.0668343 -0.76617613
-10.654712 -4.0668343 -0.76617613
-11.478181 -4.0668343 -0.76617613
-12.301681 -4.0668343 -0.76617613
-13.12515 -4.0668343 -0.76617613
-13.948651 -4.0668343 -0.76617613
-14.772119 -4.0668343 -0.76617613
-15.59562 -4.0668343 -0.76617613
-16.425808 -4.0668343 -0.76617613
-0.76617613 -4.890303 -0.76617613
-1.5963802 -4.890303 -0.76617613
-2.4198617 -4.890303 -0.76617613
-3.2433464 -4.890303 -0.76617613
-4.0668343 -4.890303 -0.76617613
-4.890303 -4.890303 -0.76617613
-5.7138037 -4.890303 -0.76617613
-6.5372724 -4.890303 -0.76617613
-7.3607731 -4.890303 -0.76617613
-8.1842418 -4.890303 -0.76617613
-9.0077425 -4.890303 -0.76617613
-9.8312112 -4.890303 -0.76617613
-10.654712 -4.890303 -0.76617613
-11.478181 -4.890303 -0.76617613
-12.301681 -4.890303 -0.76617613
-13.12515 -4.890303 -0.76617613
-13.948651 -4.890303 -0.76617613
-14.772119 -4.890303 -0.76617613
-15.59562 -4.890303 -0.76617613
-16.425808 -4.890303 -0.76617613
-0.76617613 -5.7138037 -0.76617613
-1.5963802 -5.7138037 -0.76617613
-2.4198617 -5.7138037 -0.76617613
-3.2433464 -5.7138037 -0.76617613
-4.0668343 -5.7138037 -0.76617613
-4.890303 -5.7138037 -0.76617613
-5.7138037 -5.7138037 -0.76617613
-6.5372724 -5.7138037 -0.76617613
-7.3607731 -5.7138037 -0.76617613
-8.1842418 -5.7138037 -0.76617613
-9.0077425 -5.7138037 -0.76617613
-9.8312112 -5.7138037 -0.76617613
-10.654712 -5.7138037 -0.76617613
-11.478181 -5.7138037 -0.76617613
-12.301681 -5.7138037 -0.76617613
-13.12515 -5.7138037 -0.76617613
-13.948651 -5.7138037 -0.76617613
-14.772119 -5.7138037 -0.76617613
-15.59562 -5.7138037 -0.76617613
-16.425808 -5.7138037 -0.76617613
-0.76617613 -6.5372724 -0.76617613
-1.5963802 -6.5372724 -0.76617613
-2.4198617 -6.5372724 -0.76617613
-3.2433464 -6.5372724 -0.76617613
-4.0668343 -6.5372724 -0.76617613
-4.890303 -6.5372724 -0.76617613
-5.7138037 -6.5372724 -0.76617613
-6.5372724 -6.5372724 -0.76617613
-7.3607731 -6.5372724 -0.76617613
-8.1842418 -6.5372724 -0.76617613
-9.0077425 -6.5372724 -0.76617613
-9.8312112 -6.5372724 -0.76617613
-10.654712 -6.5372724 -0.76617613
-11.478181 -6.5372724 -0.76617613
-12.301681 -6.5372724 -0.76617613
-13.12515 -6.5372724 -0.76617613
-13.948651 -6.5372724 -0.76617613
-14.772119 -6.5372724 -0.76617613
-15.59562 -6.5372724 -0.76617613
-16.425808 -6.5372724 -0.76617613
-0.76617613 -7.3607731 -0.76617613
-1.5963802 -7.3607731 -0.76617613
-2.4198617 -7.3607731 -0.76617613
-3.2433464 -7.3607731 -0.76617613
-4.0668343 -7.3607731 -0.76617613
-4.890303 -7.3607731 -0.76617613
-5.7138037 -7.3607731 -0.76617613
-6.5372724 -7.3607731 -0.76617613
-7.3607731 -7.3607731 -0.76617613
-8.1842418 -7.3607731 -0.76617613
-9.0077425 -7.3607731 -0.76617613
-9.8312112 -7.3607731 -0.76617613
-10.654712 -7.3607731 -0.76617613
-11.478181 -7.3607731 -0.76617613
-12.301681 -7.3607731 -0.76617613
-13.12515 -7.3607731 -0.76617613
-13.948651 -7.3607731 -0.76617613
-14.772119 -7.3607731 -0.76617613
-15.59562 -7.3607731 -0.76617613
-16.425808 -7.3607731 -0.76617613
-0.76617613 -8.1842418 -0.76617613
-1.5963802 -8.1842418 -0.76617613
-2.4198617 -8.1842418 -0.76617613
-3.2433464 -8.1842418 -0.76617613
-4.0668343 -8.1842418 -0.76617613
-4.890303 -8.1842418 -0.76617613
-5.7138037 -8.1842418 -0.76617613
-6.5372724 -8.1842418 -0.76617613
-7.3607731 -8.1842418 -0.76617613
-8.1842418 -8.1842418 -0.76617613
-9.0077425 -8.1842418 -0.76617613
-9.8312112 -8.1842418 -0.76617613
-10.654712 -8.1842418 -0.76617613
-11.478181 -8.1842418 -0.76617613
-12.301681 -8.1842418 -0.76617613
-13.12515 -8.1842418 -0.76617613
-13.948651 -8.1842418 -0.76617613
-14.772119 -8.1842418 -0.76617613
-15.59562 -8.1842418 -0.76617613
-16.425808 -8.1842418 -0.76617613
-0.76617613 -9.0077425 -0.76617613
-1.5963802 -9.0077425 -0.76617613
-2.4198617 -9.0077425 -0.76617613
-3.2433464 -9.0077425 -0.76617613
-4.0668343 -9.0077425 -0.76617613
-4.890303 -9.0077425 -0.76617613
-5.7138037 -9.0077425 -0.76617613
-6.5372724 -9.0077425 -0.76617613
-7.3607731 -9.0077425 -0.76617613
-8.1842418 -9.0077425 -0.76617613
-9.0077425 -9.0077425 -0.76617613
-9.8312112 -9.0077425 -0.76617613
-10.654712 -9.0077425 -0.76617613
-11.478181 -9.0077425 -0.76617613
-12.301681 -9.0077425 -0.76617613
-13.12515 -9.0077425 -0.76617613
-13.948651 -9.0077425 -0.76617613
-14.772119 -9.0077425 -0.76617613
-15.59562 -9.0077425 -0.76617613
-16.425808 -9.0077425 -0.76617613
-0.76617613 -9.8312112 -0.76617613
-1.5963802 -9.8312112 -0.76617613
-2.4198617 -9.8312112 -0.76617613
-3.2433464 -9.8312112 -0.76617613
-4.0668343 -9.8312112 -0.76617613
-4.890303 -9.8312112 -0.76617613
-5.7138037 -9.8312112 -0.76617613
-6.5372724 -9.8312112 -0.76617613
-7.3607731 -9.8312112 -0.76617613
-8.1842418 -9.8312112 -0.76617613
-9.0077425 -9.8312112 -0.76617613
-9.8312112 -9.8312112 -0.76617613
-10.654712 -9.8312112 -0.76617613
-11.478181 -9.8312112 -0.76617613
-12.301681 -9.8312112 -0.76617613
-13.12515 -9.8312112 -0.76617613
-13.948651 -9.8312112 -0.76617613
-14.772119 -9.8312112 -0.76617613
-15.59562 -9.8312112 -0.76617613
-16.425808 -9.8312112 -0.76617613
-0.76617613 -10.654712 -0.76617613
-1.5963802 -10.654712 -0.76617613
-2.4198617 -10.654712 -0.76617613
-3.2433464 -10.654712 -0.76617613
-4.0668343 -10.654712 -0.76617613
-4.890303 -10.654712 -0.76617613
-5.7138037 -10.654712 -0.76617613
-6.5372724 -10.654712 -0.76617613
-7.3607731 -10.654712 -0.76617613
-8.1842418 -10.654712 -0.76617613
-9.0077425 -10.654712 -0.76617613
-9.8312112 -10.654712 -0.76617613
-10.654712 -10.654712 -0.76617613
-11.478181 -10.654712 -0.76617613
-12.301681 -10.654712 -0.76617613
-13.12515 -10.654712 -0.76617613
-13.948651 -10.654712 -0.76617613
-14.772119 -10.654712 -0.76617613
-15.59562 -10.654712 -0.76617613
-16.425808 -10.654712 -0.76617613
-0.76617613 -11.478181 -0.76617613
-1.5963802 -11.478181 -0.76617613
-2.4198617 -11.478181 -0.76617613
-3.2433464 -11.478181 -0.76617613
-4.0668343 -11.478181 -0.76617613
-4.890303 -11.478181 -0.76617613
-5.7138037 -11.478181 -0.76617613
-6.5372724 -11.478181 -0.76617613
-7.3607731 -11.478181 -0.76617613
-8.1842418 -11.478181 -0.76617613
-9.0077425 -11.478181 -0.76617613
-9.8312112 -11.478181 -0.76617613
-10.654712 -11.478181 -0.76617613
-11.478181 -11.478181 -0.76617613
-12.301681 -11.478181 -0.76617613
-13.12515 -11.478181 -0.76617613
-13.948651 -11.478181 -0.76617613
-14.772119 -11.478181 -0.76617613
-15.59562 -11.478181 -0.76617613
-16.425808 -11.478181 -0.76617613
-0.76617613 -12.301681 -0.76617613
-1.5963802 -12.301681 -0.76617613
-2.4198617 -12.301681 -0.76617613
-3.2433464 -12.301681 -0.76617613
-4.0668343 -12.301681 -0.76617613
-4.890303 -12.301681 -0.76617613
-5.7138037 -12.301681 -0.76617613
-6.5372724 -12.301681 -0.76617613
-7.3607731 -12.301681 -0.76617613
-8.1842418 -12.301681 -0.76617613
-9.0077425 -12.301681 -0.76617613
-9.8312112 -12.301681 -0.76617613
-10.654712 -12.301681 -0.76617613
-11.478181 -12.301681 -0.76617613
-12.301681 -12.301681 -0.76617613
-13.12515 -12.301681 -0.76617613
-13.948651 -12.301681 -0.76617613
-14.772119 -12.301681 -0.76617613
-15.59562 -12.301681 -0.76617613
-16.425808 -12.301681 -0.76617613
-0.76617613 -13.12515 -0.76617613
-1.5963802 -13.12515 -0.76617613
-2.4198617 -13.12515 -0.76617613
-3.2433464 -13.12515 -0.76617613
-4.0668343 -13.12515 -0.76617613
-4.890303 -13.12515 -0.76617613
-5.7138037 -13.12515 -0.76617613
-6.5372724 -13.12515 -0.76617613
-7.3607731 -13.12515 -0.76617613
-8.1842418 -13.12515 -0.76617613
-9.0077425 -13.12515 -0.76617613
-9.8312112 -13.12515 -0.76617613
-10.654712 -13.12515 -0.76617613
-11.478181 -13.12515 -0.76617613
-12.301681 -13.12515 -0.76617613
-13.12515 -13.12515 -0.76617613
-13.948651 -13.12515 -0.76617613
-14.772119 -13.12515 -0.76617613
-15.59562 -13.12515 -0.76617613
-16.425808 -13.12515 -0.76617613
-0.76617613 -13.948651 -0.76617613
-1.5963802 -13.948651 -0.76617613
-2.4198617 -13.948651 -0.76617613
-3.2433464 -13.948651 -0.76617613
-4.0668343 -13.948651 -0.76617613
-4.890303 -13.948651 -0.76617613
-5.7138037 -13.948651 -0.76617613
-6.5372724 -13.948651 -0.76617613
-7.3607731 -13.948651 -0.76617613
-8.1842418 -13.948651 -0.76617613
-9.0077425 -13.948651 -0.76617613
-9.8312112 -13.948651 -0.76617613
-10.654712 -13.948651 -0.76617613
-11.478181 -13.948651 -0.76617613
-12.301681 -13.948651 -0.76617613
-13.12515 -13.948651 -0.76617613
-13.948651 -13.948651 -0.76617613
-14.772119 -13.948651 -0.76617613
-15.59562 -13.948651 -0.76617613
-16.425808 -13.948651 -0.76617613
-0.76617613 -14.772119 -0.76617613
-1.5963802 -14.772119 -0.76617613
-2.4198617 -14.772119 -0.76617613
-3.2433464 -14.772119 -0.76617613
-4.0668343 -14.772119 -0.76617613
-4.890303 -14.772119 -0.76617613
-5.7138037 -14.772119 -0.76617613
-6.5372724 -14.772119 -0.76617613
-7.3607731 -14.772119 -0.76617613
-8.1842418 -14.772119 -0.76617613
-9.0077425 -14.772119 -0.76617613
-9.8312112 -14.772119 -0.76617613
-10.654712 -14.772119 -0.76617613
-11.478181 -14.772119 -0.76617613
-12.301681 -14.772119 -0.76617613
-13.12515 -14.772119 -0.76617613
-13.948651 -14.772119 -0.76617613
-14.772119 -14.772119 -0.76617613
-15.59562 -14.772119 -0.76617613
-16.425808 -14.772119 -0.76617613
-0.76617613 -15.59562 -0.76617613
-1.5963802 -15.59562 -0.76617613
-2.4198617 -15.59562 -0.76617613
-3.2433464 -15.59562 -0.76617613
-4.0668343 -15.59562 -0.76617613
-4.890303 -15.59562 -0.76617613
-5.7138037 -15.59562 -0.76617613
-6.5372724 -15.59562 -0.76617613
-7.3607731 -15.59562 -0.76617613
-8.1842418 -15.59562 -0.76617613
-9.0077425 -15.59562 -0.76617613
-9.8312112 -15.59562 -0.76617613
-10.654712 -15.59562 -0.76617613
-11.478181 -15.59562 -0.76617613
-12.301681 -15.59562 -0.76617613
-13.12515 -15.59562 -0.76617613
-13.948651 -15.59562 -0.76617613
-14.772119 -15.59562 -0.76617613
-15.59562 -15.59562 -0.76617613
-16.425808 -15.59562 -0.76617613
-0.76617613 -16.425808 -0.76617613
-1.5963802 -16.425808 -0.76617613
-2.4198617 -16.425808 -0.76617613
-3.2433464 -16.425808 -0.76617613
-4.0668343 -16.425808 -0.76617613
-4.890303 -16.425808 -0.76617613
-5.7138037 -16.425808 -0.76617613
-6.5372724 -16.425808 -0.76617613
-7.3607731 -16.425808 -0.76617613
-8.1842418 -16.425808 -0.76617613
-9.0077425 -16.425808 -0.76617613
-9.8312112 -16.425808 -0.76617613
-10.654712 -16.425808 -0.76617613
-11.478181 -16.425808 -0.76617613
-12.301681 -16.425808 -0.76617613
-13.12515 -16.425808 -0.76617613
-13.948651 -16.425808 -0.76617613
-14.772119 -16.425808 -0.76617613
-15.59562 -16.425808 -0.76617613
-16.425808 -16.425808 -0.76617613
-0.76617613 -0.76617613 -1.5963802
-1.5963802 -0.76617613 -1.5963802
-2.4198617 -0.76617613 -1.5963802
-3.2433464 -0.76617613 -1.5963802
-4.0668343 -0.76617613 -1.5963802
-4.890303 -0.76617613 -1.5963802
-5.7138037 -0.76617613 -1.5963802
-6.5372724 -0.76617613 -1.5963802
-7.3607731 -0.76617613 -1.5963802
-8.1842418 -0.76617613 -1.5963802
-9.0077425 -0.76617613 -1.5963802
-9.8312112 -0.76617613 -1.5963802