# vtk DataFile Version 4.0
hesp visualization file
ASCII
DATASET UNSTRUCTURED_GRID
POINTS 3000 double
0.046638368 0.046638368 0.046638368
2.1339094 0.046638368 0.046638368
4.2253568 0.046638368 0.046638368
6.3168124 0.046638368 0.046638368
8.4082761 0.046638368 0.046638368
10.499691 0.046638368 0.046638368
12.591187 0.046638368 0.046638368
14.682602 0.046638368 0.046638368
16.774098 0.046638368 0.046638368
18.865513 0.046638368 0.046638368
20.957009 0.046638368 0.046638368
23.048424 0.046638368 0.046638368
25.13992 0.046638368 0.046638368
27.231335 0.046638368 0.046638368
29.322832 0.046638368 0.046638368
31.414247 0.046638368 0.046638368
33.505743 0.046638368 0.046638368
35.597158 0.046638368 0.046638368
37.688654 0.046638368 0.046638368
39.775884 0.046638368 0.046638368
0.046638368 2.1339094 0.046638368
2.1339094 2.1339094 0.046638368
4.2253568 2.1339094 0.046638368
6.3168124 2.1339094 0.046638368
8.4082761 2.1339094 0.046638368
10.499691 2.1339094 0.046638368
12.591187 2.1339094 0.046638368
14.682602 2.1339094 0.046638368
16.774098 2.1339094 0.046638368
18.865513 2.1339094 0.046638368
20.957009 2.1339094 0.046638368
23.048424 2.1339094 0.046638368
25.13992 2.1339094 0.046638368
27.231335 2.1339094 0.046638368
29.322832 2.1339094 0.046638368
31.414247 2.1339094 0.046638368
33.505743 2.1339094 0.046638368
35.597158 2.1339094 0.046638368
37.688654 2.1339094 0.046638368
39.775884 2.1339094 0.046638368
0.046638368 4.2253568 0.046638368
2.1339094 4.2253568 0.046638368
4.2253568 4.2253568 0.046638368
6.3168124 4.2253568 0.046638368
8.4082761 4.2253568 0.046638368
10.499691 4.2253568 0.046638368
12.591187 4.2253568 0.046638368
14.682602 4.2253568 0.046638368
16.774098 4.2253568 0.046638368
18.865513 4.2253568 0.046638368
20.957009 4.2253568 0.046638368
23.048424 4.2253568 0.046638368
25.13992 4.2253568 0.046638368
27.231335 4.2253568 0.046638368
29.322832 4.2253568 0.046638368
31.414247 4.2253568 0.046638368
33.505743 4.2253568 0.046638368
35.597158 4.2253568 0.046638368
37.688654 4.2253568 0.046638368
39.775884 4.2253568 0.046638368
0.046638368 6.3168124 0.046638368
2.1339094 6.3168124 0.046638368
4.2253568 6.3168124 0.046638368
6.3168124 6.3168124 0.046638368
8.4082761 6.3168124 0.046638368
10.499691 6.3168124 0.046638368
12.591187 6.3168124 0.046638368
14.682602 6.3168124 0.046638368
16.774098 6.3168124 0.046638368
18.865513 6.3168124 0.046638368
20.957009 6.3168124 0.046638368
23.048424 6.3168124 0.046638368
25.13992 6.3168124 0.046638368
27.231335 6.3168124 0.046638368
29.322832 6.3168124 0.046638368
31.414247 6.3168124 0.046638368
33.505743 6.3168124 0.046638368
35.597158 6.3168124 0.046638368
37.688654 6.3168124 0.046638368
39.775884 6.3168124 0.046638368
0.046638368 8.4082761 0.046638368
2.1339094 8.4082761 0.046638368
4.2253568 8.4082761 0.046638368
6.3168124 8.4082761 0.046638368
8.4082761 8.4082761 0.046638368
10.499691 8.4082761 0.046638368
12.591187 8.4082761 0.046638368
14.682602 8.4082761 0.046638368
16.774098 8.4082761 0.046638368
18.865513 8.4082761 0.046638368
20.957009 8.4082761 0.046638368
23.048424 8.4082761 0.046638368
25.13992 8.4082761 0.046638368
27.231335 8.4082761 0.046638368
29.322832 8.4082761 0.046638368
31.414247 8.4082761 0.046638368
33.505743 8.4082761 0.046638368
35.597158 8.4082761 0.046638368
37.688654 8.4082761 0.046638368
39.775884 8.4082761 0.046638368
0.046638368 10.499691 0.046638368
2.1339094 10.499691 0.046638368
4.2253568 10.499691 0.046638368
6.3168124 10.499691 0.046638368
8.4082761 10.499691 0.046638368
10.499691 10.499691 0.046638368
12.591187 10.499691 0.046638368
14.682602 10.499691 0.046638368
16.774098 10.499691 0.046638368
18.865513 10.499691 0.046638368
20.957009 10.499691 0.046638368
23.048424 10.499691 0.046638368
25.13992 10.499691 0.046638368
27.231335 10.499691 0.046638368
29.322832 10.499691 0.046638368
31.414247 10.499691 0.046638368
33.505743 10.499691 0.046638368
35.597158 10.499691 0.046638368
37.688654 10.499691 0.046638368
39.775884 10.499691 0.046638368
0.046638368 12.591187 0.046638368
2.1339094 12.591187 0.046638368
4.2253568 12.591187 0.046638368
6.3168124 12.591187 0.046638368
8.4082761 12.591187 0.046638368
10.499691 12.591187 0.046638368
12.591187 12.591187 0.046638368
14.682602 12.591187 0.046638368
16.774098 12.591187 0.046638368
18.865513 12.591187 0.046638368
20.957009 12.591187 0.046638368
23.048424 12.591187 0.046638368
25.13992 12.591187 0.046638368
27.231335 12.591187 0.046638368
29.322832 12.591187 0.046638368
31.414247 12.591187 0.046638368
33.505743 12.591187 0.046638368
35.597158 12.591187 0.046638368
37.688654 12.591187 0.046638368
39.775884 12.591187 0.046638368
0.046638368 14.682602 0.046638368
2.1339094 14.682602 0.046638368
4.2253568 14.682602 0.046638368
6.3168124 14.682602 0.046638368
8.4082761 14.682602 0.046638368
10.499691 14.682602 0.046638368
12.591187 14.682602 0.046638368
14.682602 14.682602 0.046638368
16.774098 14.682602 0.046638368
18.865513 14.682602 0.046638368
20.957009 14.682602 0.046638368
23.048424 14.682602 0.046638368
25.13992 14.682602 0.046638368
27.231335 14.682602 0.046638368
29.322832 14.682602 0.046638368
31.414247 14.682602 0.046638368
33.505743 14.682602 0.046638368
35.597158 14.682602 0.046638368
37.688654 14.682602 0.046638368
39.775884 14.682602 0.046638368
0.046638368 16.774098 0.046638368
2.1339094 16.774098 0.046638368
4.2253568 16.774098 0.046638368
6.3168124 16.774098 0.046638368
8.4082761 16.774098 0.046638368
10.499691 16.774098 0.046638368
12.591187 16.774098 0.046638368
14.682602 16.774098 0.046638368
16.774098 16.774098 0.046638368
18.865513 16.774098 0.046638368
20.957009 16.774098 0.046638368
23.048424 16.774098 0.046638368
25.13992 16.774098 0.046638368
27.231335 16.774098 0.046638368
29.322832 16.774098 0.046638368
31.414247 16.774098 0.046638368
33.505743 16.774098 0.046638368
35.597158 16.774098 0.046638368
37.688654 16.774098 0.046638368
39.775884 16.774098 0.046638368
0.046638368 18.865513 0.046638368
2.1339094 18.865513 0.046638368
4.2253568 18.865513 0.046638368
6.3168124 18.865513 0.046638368
8.4082761 18.865513 0.046638368
10.499691 18.865513 0.046638368
12.591187 18.865513 0.046638368
14.682602 18.865513 0.046638368
16.774098 18.865513 0.046638368
18.865513 18.865513 0.046638368
20.957009 18.865513 0.046638368
23.048424 18.865513 0.046638368
25.13992 18.865513 0.046638368
27.231335 18.865513 0.046638368
29.322832 18.865513 0.046638368
31.414247 18.865513 0.046638368
33.505743 18.865513 0.046638368
35.597158 18.865513 0.046638368
37.688654 18.865513 0.046638368
39.775884 18.865513 0.046638368
0.046638368 20.957009 0.046638368
2.1339094 20.957009 0.046638368
4.2253568 20.957009 0.046638368
6.3168124 20.957009 0.046638368
8.4082761 20.957009 0.046638368
10.499691 20.957009 0.046638368
12.591187 20.957009 0.046638368
14.682602 20.957009 0.046638368
16.774098 20.957009 0.046638368
18.865513 20.957009 0.046638368
20.957009 20.957009 0.046638368
23.048424 20.957009 0.046638368
25.13992 20.957009 0.046638368
27.231335 20.957009 0.046638368
29.322832 20.957009 0.046638368
31.414247 20.957009 0.046638368
33.505743 20.957009 0.046638368
35.597158 20.957009 0.046638368
37.688654 20.957009 0.046638368
39.775884 20.957009 0.046638368
0.046638368 23.048424 0.046638368
2.1339094 23.048424 0.046638368
4.2253568 23.048424 0.046638368
6.3168124 23.048424 0.046638368
8.4082761 23.048424 0.046638368
10.499691 23.048424 0.046638368
12.591187 23.048424 0.046638368
14.682602 23.048424 0.046638368
16.774098 23.048424 0.046638368
18.865513 23.048424 0.046638368
20.957009 23.048424 0.046638368
23.048424 23.048424 0.046638368
25.13992 23.048424 0.046638368
27.231335 23.048424 0.046638368
29.322832 23.048424 0.046638368
31.414247 23.048424 0.046638368
33.505743 23.048424 0.046638368
35.597158 23.048424 0.046638368
37.688654 23.048424 0.046638368
39.775884 23.048424 0.046638368
0.046638368 25.13992 0.046638368
2.1339094 25.13992 0.046638368
4.2253568 25.13992 0.046638368
6.3168124 25.13992 0.046638368
8.4082761 25.13992 0.046638368
10.499691 25.13992 0.046638368
12.591187 25.13992 0.046638368
14.682602 25.13992 0.046638368
16.774098 25.13992 0.046638368
18.865513 25.13992 0.046638368
20.957009 25.13992 0.046638368
23.048424 25.13992 0.046638368
25.13992 25.13992 0.046638368
27.231335 25.13992 0.046638368
29.322832 25.13992 0.046638368
31.414247 25.13992 0.046638368
33.505743 25.13992 0.046638368
35.597158 25.13992 0.046638368
37.688654 25.13992 0.046638368
39.775884 25.13992 0.046638368
0.046638368 27.231335 0.046638368
2.1339094 27.231335 0.046638368
4.2253568 27.231335 0.046638368
6.3168124 27.231335 0.046638368
8.4082761 27.231335 0.046638368
10.499691 27.231335 0.046638368
12.591187 27.231335 0.046638368
14.682602 27.231335 0.046638368
16.774098 27.231335 0.046638368
18.865513 27.231335 0.046638368
20.957009 27.231335 0.046638368
23.048424 27.231335 0.046638368
25.13992 27.231335 0.046638368
27.231335 27.231335 0.046638368
29.322832 27.231335 0.046638368
31.414247 27.231335 0.046638368
33.505743 27.231335 0.046638368
35.597158 27.231335 0.046638368
37.688654 27.231335 0.046638368
39.775884 27.231335 0.046638368
0.046638368 29.322832 0.046638368
2.1339094 29.322832 0.046638368
4.2253568 29.322832 0.046638368
6.3168124 29.322832 0.046638368
8.4082761 29.322832 0.046638368
10.499691 29.322832 0.046638368
12.591187 29.322832 0.046638368
14.682602 29.322832 0.046638368
16.774098 29.322832 0.046638368
18.865513 29.322832 0.046638368
20.957009 29.322832 0.046638368
23.048424 29.322832 0.046638368
25.13992 29.322832 0.046638368
27.231335 29.322832 0.046638368
29.322832 29.322832 0.046638368
31.414247 29.322832 0.046638368
33.505743 29.322832 0.046638368
35.597158 29.322832 0.046638368
37.688654 29.322832 0.046638368
39.775884 29.322832 0.046638368
0.046638368 31.414247 0.046638368
2.1339094 31.414247 0.046638368
4.2253568 31.414247 0.046638368
6.3168124 31.414247 0.046638368
8.4082761 31.414247 0.046638368
10.499691 31.414247 0.046638368
12.591187 31.414247 0.046638368
14.682602 31.414247 0.046638368
[...]
POINT_DATA 3000
SCALARS m double
LOOKUP_TABLE default
1
1
1
1
1
1
1
1
1
1
1
1
1
1
1
1
1
1
1
1
1
1
1
1
1
1
1
1
1
1
1
1
1
1
1
1
1
1
1
1
1
1
1
1
1
1
1
1
1
1
1
1
1
1
1
1
1
1
1
1
1
1
1
1
1
1
1
1
1
1
1
1
1
1
1
1
1
1
1
1
1
1
1
1
1
1
1
1
1
1
1
1
1
1
1
1
1
1
1
1
1
1
1
1
1
1
1
1
1
1
1
1
1
1
1
1
1
1
1
1
1
1
1
1
1
1
1
1
1
1
1
1
1
1
1
1
1
1
1
1
1
1
1
1
1
1
1
1
1
1
1
1
1
1
1
1
1
1
1
1
1
1
1
1
1
1
1
1
1
1
1
1
1
1
1
1
1
1
1
1
1
1
1
1
1
1
1
1
1
1
1
1
1
1
1
1
1
1
1
1
1
1
1
1
1
1
1
1
1
1
1
1
1
1
1
1
1
1
1
1
1
1
1
1
1
1
1
1
1
1
1
1
1
1
1
1
1
1
1
1
1
1
1
1
1
1
1
1
1
1
1
1
1
1
1
1
1
1
1
1
1
1
1
1
1
1
1
1
1
1
1
1
1
1
1
1
1
1
1
1
1
1
1
1
1
1
1
1
1
1
1
1
1
1
1
1
1
1
1
1
1
1
1
1
1
1
1
1
1
1
1
1
1
1
1
1
1
1
1
1
1
1
1
1
1
1
1
1
1
1
1
1
1
1
1
1
1
1
1
1
1
1
1
1
1
1
1
1
1
1
1
1
1
1
1
1
1
1
1
1
1
1
1
1
1
1
1
1
1
1
1
1
1
1
1
1
1
1
1
1
1
1
1
1
1
1
1
1
1
1
1
1
1
1
1
1
1
1
1
1
1
1
1
1
1
1
1
1
1
1
1
1
1
1
1
1
1
1
1
1
1
1
1
1
1
1
1
1
1
1
1
1
1
1
1
1
1
1
1
1
1
1
1
1
1
1
1
1
1
1
1
1
1
1
1
1
1
1
1
1
1
1
1
1
1
1
1
1
1
1
1
1
1
1
1
1
1
1
1
1
1
1
1
1
1
1
1
1
1
1
1
1
1
1
1
1
1
1
1
1
1
1
1
1
1
1
1
1
1
1
1
1
1
1
1
1
1
1
1
1
1
1
1
1
1
1
1
1
1
1
1
1
1
1
1
1
1
1
1
1
1
1
1
1
1
1
1
1
1
1
1
1
1
1
1
1
1
1
1
1
1
1
1
1
1
1
1
1
1
1
1
1
1
1
1
1
1
1
1
1
1
1
1
1
1
1
1
1
1
1
1
1
1
1
1
1
1
1
1
1
1
1
1
1
1
1
1
1
1
1
1
1
1
1
1
1
1
1
1
1
1
1
1
1
1
1
1
1
1
1
1
1
1
1
1
1
1
1
1
1
1
1
1
1
1
1
1
1
1
1
1
1
1
1
1
1
1
1
1
1
1
1
1
1
1
1
1
1
1
1
1
1
1
1
1
1
1
1
1
1
1
1
1
1
1
1
1
1
1
1
1
1
1
1
1
1
1
1
1
1
1
1
1
1
1
1
1
1
1
1
1
1
1
1
1
1
1
1
1
1
1
1
1
1
1
1
1
1
1
1
1
1
1
1
1
1
1
1
1
1
1
1
1
1
1
1
1
1
1
1
1
1
1
1
1
1
1
1
1
1
1
1
1
1
1
1
1
1
1
1
1
1
1
1
1
1
1
1
1
1
1
1
1
1
1
1
1
1
1
1
1
1
1
1
1
1
1
1
1
1
1
1
1
1
1
1
1
1
1
1
1
1
1
1
1
1
1
1
1
1
1
1
1
1
1
1
1
1
1
1
1
1
1
1
1
1
1
1
1
1
1
1
1
1
1
1
1
1
1
1
1
1
1
1
1
1
1
1
1
1
1
1
1
1
1
1
1
1
1
1
1
1
1
1
1
1
1
1
1
1
1
1
1
1
1
1
1
1
1
1
1
1
1
1
1
1
1
1
1
1
1
1
1
1
1
1
1
1
1
1
1
1
1
1
1
1
1
1
1
1
1
1
1
1
1
1
1
1
1
1
1
1
1
1
1
1
1
1
1
1
1
1
1
1
1
1
1
1
1
1
1
1
1
1
1
1
1
1
1
1
1
1
1
1
1
1
1
1
1
1
1
1
1
1
1
1
1
1
1
1
1
1
1
1
1
1
1
1
1
1
1
1
1
1
1
1
1
1
1
1
1
1
1
1
1
1
1
1
1
1
1
1
1
1
1
1
1
1
1
1
1
1
1
1
1
1
1
1
1
1
1
1
1
1
1
1
1
1
1
1
1
1
1
1
1
1
1
1
1
1
1
1
1
1
1
1
1
1
1
1
1
1
1
1
1
1
1
1
1
1
1
1
1
1
1
1
1
1
1
1
1
1
1
1
1
1
1
1
1
1
1
1
1
1
1
1
1
1
1
1
1
1
1
1
1
1
1
1
1
1
1
1
1
1
1
1
1
1
1
1
1
1
1
1
1
1
1
1
1
1
1
1
1
1
1
1
1
1
1
1
1
1
1
1
1
1
1
1
1
1
1
1
1
1
1
1
1
1
1
1
1
1
1
1
1
1
1
1
1
1
1
1
1
1
1
1
1
1
1
1
1
1
1
1
1
1
1
1
1
1
1
1
1
1
1
1
1
1
1
1
1
1
1
1
1
1
1
1
1
1
1
1
1
1
1
1
1
1
1
1
1
1
1
1
1
1
1
1
1
1
1
1
1
1
1
1
1
1
1
1
1
1
1
1
1
1
1
1
1
1
1
1
1
1
1
1
1
1
1
1
1
1
1
1
1
1
1
1
1
1
1
1
1
1
1
1
1
1
1
1
1
1
1
1
1
1
1
1
1
1
1
1
1
1
1
1
1
1
1
1
1
1
1
1
1
1
1
1
1
1
1
1
1
1
1
1
1
1
1
1
1
1
1
1
1
1
1
1
1
1
1
1
1
1
1
1
1
1
1
1
1
1
1
1
1
1
1
1
1
1
1
1
1
1
1
1
1
1
1
1
1
1
1
1
1
1
1
1
1
1
1
1
1
1
1
1
1
1
1
1
1
1
1
1
1
1
1
1
1
1
1
1
1
1
1
1
1
1
1
1
1
1
1
1
1
1
1
1
1
1
1
1
1
1
1
1
1
1
1
1
1
1
1
1
1
1
1
1
1
1
1
1
1
1
1
1
1
1
1
1
1
1
1
1
1
1
1
1
1
1
1
1
1
1
1
1
1
1
1
1
1
1
1
1
1
1
1
1
1
1
1
1
1
1
1
1
1
1
1
1
1
1
1
1
1
1
1
1
1
1
1
1
1
1
1
1
1
1
1
1
1
1
1
1
1
1
1
1
1
1
1
1
1
1
1
1
1
1
1
1
1
1
1
1
1
1
1
1
1
1
1
1
1
1
1
1
1
1
1
1
1
1
1
1
1
1
1
1
1
1
1
1
1
1
1
1
1
1
1
1
1
1
1
1
1
1
1
1
1
1
1
1
1
1
1
1
1
1
1
1
1
1
1
1
1
1
1
1
1
1
1
1
1
1
1
1
1
1
1
1
1
1
1
1
1
1
1
1
1
1
1
1
1
1
1
1
1
1
1
1
1
1
1
1
1
1
1
1
1
1
1
1
1
1
1
1
1
1
1
1
1
1
1
1
1
1
1
1
1
1
1
1
1
1
1
1
1
1
1
1
1
1
1
1
1
1
1
1
1
1
1
1
1
1
1
1
1
1
1
1
1
1
1
1
1
1
1
1
1
1
1
1
1
1
1
1
1
1
1
1
1
1
1
1
1
1
1
1
1
1
1
1
1
1
1
1
1
1
1
1
1
1
1
1
1
1
1
1
1
1
1
1
1
1
1
1
1
1
1
1
1
1
1
1
1
1
1
1
1
1
1
1
1
1
1
1
1
1
1
1
1
1
1
1
1
1
1
1
1
1
1
1
1
1
1
1
1
1
1
1
1
1
1
1
1
1
1
1
1
1
1
1
1
1
1
1
1
1
1
1
1
1
1
1
1
1
1
1
1
1
1
1
1
1
1
1
1
1
1
1
1
1
1
1
1
1
1
1
1
1
1
1
1
1
1
1
1
1
1
1
1
1
1
1
1
1
1
1
1
1
1
1
1
1
1
1
1
1
1
1
1
1
1
1
1
1
1
1
1
1
1
1
1
1
1
1
1
1
1
1
1
1
1
1
1
1
1
1
1
1
1
1
1
1
1
1
1
1
1
1
1
1
1
1
1
1
1
1
1
1
1
1
1
1
1
1
1
1
1
1
1
1
1
1
1
1
1
1
1
1
1
1
1
1
1
1
1
1
1
1
1
1
1
1
1
1
1
1
1
1
1
1
1
1
1
1
1
1
1
1
1
1
1
1
1
1
1
1
1
1
1
1
1
1
1
1
1
1
1
1
1
1
1
1
1
1
1
1
1
1
1
1
1
1
1
1
1
1
1
1
1
1
1
1
1
1
1
1
1
1
1
1
1
1
1
1
1
1
1
1
1
1
1
1
1
1
1
1
1
1
1
1
1
1
1
1
1
1
1
1
1
1
1
1
1
1
1
1
1
1
1
1
1
1
1
1
1
1
1
1
1
1
1
1
1
1
1
1
1
1
1
1
1
1
1
1
1
1
1
1
1
1
1
1
1
1
1
1
1
1
1
1
1
1
1
1
1
1
1
1
1
1
1
1
1
1
1
1
1
1
1
1
1
1
1
1
1
1
1
1
1
1
1
1
1
1
1
1
1
1
1
1
1
1
1
1
1
1
1
1
1
1
1
1
1
1
1
1
1
1
1
1
1
1
1
1
1
1
1
1
1
1
1
1
1
1
1
1
1
1
1
1
1
1
1
1
1
1
1
1
1
1
1
1
1
1
1
1
1
1
1
1
1
1
1
1
1
1
1
1
1
1
1
1
1
1
1
1
1
1
1
1
1
1
1
1
1
1
1
1
1
1
1
1
1
1
1
1
1
1
1
1
1
1
1
1
1
1
1
1
1
1
1
1
1
1
1
1
1
1
1
1
1
1
1
1
1
1
1
1
1
1
1
1
1
1
1
1
1
1
1
1
1
1
1
1
1
1
1
1
1
1
1
1
1
1
1
1
1
1
1
1
1
1
1
1
1
1
1
1
1
1
1
1
1
1
1
1
1
1
1
1
1
1
1
1
1
1
1
1
1
1
1
1
1
1
1
1
1
1
1
1
1
1
1
1
1
1
1
1
1
1
1
1
1
1
1
1
1
1
1
1
1
1
1
1
1
1
1
1
1
1
1
1
1
1
1
1
1
1
1
1
1
1
1
1
1
1
1
1
1
1
1
1
1
1
1
1
1
1
1
1
1
1
1
1
1
1
1
1
1
1
1
1
1
1
1
1
1
1
1
1
1
1
1
1
1
1
1
1
1
1
1
1
1
1
1
1
1
1
1
1
1
1
1
1
1
1
1
1
1
1
1
1
1
1
1
1
1
1
1
1
1
1
1
1
1
1
1
1
1
1
1
1
1
1
1
1
1
1
1
1
1
1
1
1
1
1
1
1
1
1
1
1
1
1
1
1
1
1
1
1
1
1
1
1
1
1
1
1
1
1
1
1
1
1
1
1
1
1
1
1
1
1
1
1
1
1
1
1
1
1
1
1
1
1
1
1
1
1
1
1
1
1
1
1
1
1
1
1
1
1
1
1
1
1
1
1
1
1
1
1
1
1
1
1
1
1
1
1
1
1
1
1
1
1
1
1
1
1
1
1
1
1
1
1
1
1
1
1
1
1
1
1
1
1
1
1
1
1
1
1
1
1
1
1
1
1
1
1
1
1
1
1
1
1
1
1
1
1
1
1
1
1
1
1
1
1
1
1
1
1
1
1
1
1
1
1
1
1
1
1
1
1
1
1
1
1
1
1
1
1
1
1
1
1
1
1
1
1
1
1
1
1
1
1
1
1
1
1
1
1
1
1
1
1
1
1
1
1
1
1
1
1
1
1
1
1
1
1
1
1
1
1
1
1
1
1
1
1
1
1
1
1
1
1
1
1
1
1
1
1
1
1
1
1
1
1
1
1
1
1
1
1
1
1
1
1
1
1
1
1
1
1
1
1
1
1
1
1
1
1
1
1
1
1
1
1
1
1
1
1
1
1
1
1
1
1
1
1
1
1
1
1
1
1
1
1
1
1
1
1
1
1
1
1
1
1
1
1
1
1
1
1
1
1
1
1
1
1
1
1
1
1
1
1
1
1
1
1
1
1
1
1
1
1
1
1
1
1
1
1
1
1
1
1
1
1
1
1
1
1
1
1
1
1
1
1
1
1
1
1
1
1
1
1
1
1
1
1
1
1
1
1
1
1
1
1
1
1
1
1
1
1
1
1
1
1
1
1
1
1
1
1
1
1
1
1
1
1
1
1
1
1
1
1
1
1
1
1
1
1
1
1
1
1
1
1
1
1
1
1
1
1
1
1
1
1
1
1
1
1
1
1
1
1
1
1
1
1
1
1
1
1
1
1
1
1
1
1
1
1
1
1
1
1
1
1
1
1
1
1
1
1
1
1
1
1
1
1
1
1
1
1
1
1
1
1
1
1
1
1
1
1
1
1
1
1
1
1
1
1
1
1
1
1
1
1
1
1
1
1
1
1
1
1
1
1
1
1
1
1
1
1
1
1
1
1
1
1
1
1
1
1
1
1
1
1
1
1
1
1
1
1
1
1
1
1
1
1
VECTORS v double
-1.410504 -1.410504 -1.410504
-2.9251851 -1.410504 -1.410504
-4.4341213 -1.410504 -1.410504
-5.9430634 -1.410504 -1.410504
-7.4520113 -1.410504 -1.410504
-8.9609241 -1.410504 -1.410504
-10.469895 -1.410504 -1.410504
-11.978808 -1.410504 -1.410504
-13.48778 -1.410504 -1.410504
-14.996692 -1.410504 -1.410504
-16.505664 -1.410504 -1.410504
-18.014576 -1.410504 -1.410504
-19.523548 -1.410504 -1.410504
-21.032461 -1.410504 -1.410504
-22.541432 -1.410504 -1.410504
-24.050345 -1.410504 -1.410504
-25.559316 -1.410504 -1.410504
-27.068229 -1.410504 -1.410504
-28.5772 -1.410504 -1.410504
-30.091852 -1.410504 -1.410504
-1.410504 -2.9251851 -1.410504
-2.9251851 -2.9251851 -1.410504
-4.4341213 -2.9251851 -1.410504
-5.9430634 -2.9251851 -1.410504
-7.4520113 -2.9251851 -1.410504
-8.9609241 -2.9251851 -1.410504
-10.469895 -2.9251851 -1.410504
-11.978808 -2.9251851 -1.410504
-13.48778 -2.9251851 -1.410504
-14.996692 -2.9251851 -1.410504
-16.505664 -2.9251851 -1.410504
-18.014576 -2.9251851 -1.410504
-19.523548 -2.9251851 -1.410504
-21.032461 -2.9251851 -1.410504
-22.541432 -2.9251851 -1.410504
-24.050345 -2.9251851 -1.410504
-25.559316 -2.9251851 -1.410504
-27.068229 -2.9251851 -1.410504
-28.5772 -2.9251851 -1.410504
-30.091852 -2.9251851 -1.410504
-1.410504 -4.4341213 -1.410504
-2.9251851 -4.4341213 -1.410504
-4.4341213 -4.4341213 -1.410504
-5.9430634 -4.4341213 -1.410504
-7.4520113 -4.4341213 -1.410504
-8.9609241 -4.4341213 -1.410504
-10.469895 -4.4341213 -1.410504
-11.978808 -4.4341213 -1.410504
-13.48778 -4.4341213 -1.410504
-14.996692 -4.4341213 -1.410504
-16.505664 -4.4341213 -1.410504
-18.014576 -4.4341213 -1.410504
-19.523548 -4.4341213 -1.410504
-21.032461 -4.4341213 -1.410504
-22.541432 -4.4341213 -1.410504
-24.050345 -4.4341213 -1.410504
-25.559316 -4.4341213 -1.410504
-27.068229 -4.4341213 -1.410504
-28.5772 -4.4341213 -1.410504
-30.091852 -4.4341213 -1.410504
-1.410504 -5.9430634 -1.410504
-2.9251851 -5.9430634 -1.410504
-4.4341213 -5.9430634 -1.410504
-5.9430634 -5.9430634 -1.410504
-7.4520113 -5.9430634 -1.410504
-8.9609241 -5.9430634 -1.410504
-10.469895 -5.9430634 -1.410504
-11.978808 -5.9430634 -1.410504
-13.48778 -5.9430634 -1.410504
-14.996692 -5.9430634 -1.410504
-16.505664 -5.9430634 -1.410504
-18.014576 -5.9430634 -1.410504
-19.523548 -5.9430634 -1.410504
-21.032461 -5.9430634 -1.410504
-22.541432 -5.9430634 -1.410504
-24.050345 -5.9430634 -1.410504
-25.559316 -5.9430634 -1.410504
-27.068229 -5.9430634 -1.410504
-28.5772 -5.9430634 -1.410504
-30.091852 -5.9430634 -1.410504
-1.410504 -7.4520113 -1.410504
-2.9251851 -7.4520113 -1.410504
-4.4341213 -7.4520113 -1.410504
-5.9430634 -7.4520113 -1.410504
-7.4520113 -7.4520113 -1.410504
-8.9609241 -7.4520113 -1.410504
-10.469895 -7.4520113 -1.410504
-11.978808 -7.4520113 -1.410504
-13.48778 -7.4520113 -1.410504
-14.996692 -7.4520113 -1.410504
-16.505664 -7.4520113 -1.410504
-18.014576 -7.4520113 -1.410504
-19.523548 -7.4520113 -1.410504
-21.032461 -7.4520113 -1.410504
-22.541432 -7.4520113 -1.410504
-24.050345 -7.4520113 -1.410504
-25.559316 -7.4520113 -1.410504
-27.068229 -7.4520113 -1.410504
-28.5772 -7.4520113 -1.410504
-30.091852 -7.4520113 -1.410504
-1.410504 -8.9609241 -1.410504
-2.9251851 -8.9609241 -1.410504
-4.4341213 -8.9609241 -1.410504
-5.9430634 -8.9609241 -1.410504
-7.4520113 -8.9609241 -1.410504
-8.9609241 -8.9609241 -1.410504
-10.469895 -8.9609241 -1.410504
-11.978808 -8.9609241 -1.410504
-13.48778 -8.9609241 -1.410504
-14.996692 -8.9609241 -1.410504
-16.505664 -8.9609241 -1.410504
-18.014576 -8.9609241 -1.410504
-19.523548 -8.9609241 -1.410504
-21.032461 -8.9609241 -1.410504
-22.541432 -8.9609241 -1.410504
-24.050345 -8.9609241 -1.410504
-25.559316 -8.9609241 -1.410504
-27.068229 -8.9609241 -1.410504
-28.5772 -8.9609241 -1.410504
-30.091852 -8.9609241 -1.410504
-1.410504 -10.469895 -1.410504
-2.9251851 -10.469895 -1.410504
-4.4341213 -10.469895 -1.410504
-5.9430634 -10.469895 -1.410504
-7.4520113 -10.469895 -1.410504
-8.9609241 -10.469895 -1.410504
-10.469895 -10.469895 -1.410504
-11.978808 -10.469895 -1.410504
-13.48778 -10.469895 -1.410504
-14.996692 -10.469895 -1.410504
-16.505664 -10.469895 -1.410504
-18.014576 -10.469895 -1.410504
-19.523548 -10.469895 -1.410504
-21.032461 -10.469895 -1.410504
-22.541432 -10.469895 -1.410504
-24.050345 -10.469895 -1.410504
-25.559316 -10.469895 -1.410504
-27.068229 -10.469895 -1.410504
-28.5772 -10.469895 -1.410504
-30.091852 -10.469895 -1.410504
-1.410504 -11.978808 -1.410504
-2.9251851 -11.978808 -1.410504
-4.4341213 -11.978808 -1.410504
-5.9430634 -11.978808 -1.410504
-7.4520113 -11.978808 -1.410504
-8.9609241 -11.978808 -1.410504
-10.469895 -11.978808 -1.410504
-11.978808 -11.978808 -1.410504
-13.48778 -11.978808 -1.410504
-14.996692 -11.978808 -1.410504
-16.505664 -11.978808 -1.410504
-18.014576 -11.978808 -1.410504
-19.523548 -11.978808 -1.410504
-21.032461 -11.978808 -1.410504
-22.541432 -11.978808 -1.410504
-24.050345 -11.978808 -1.410504
-25.559316 -11.978808 -1.410504
-27.068229 -11.978808 -1.410504
-28.5772 -11.978808 -1.410504
-30.091852 -11.978808 -1.410504
-1.410504 -13.48778 -1.410504
-2.9251851 -13.48778 -1.410504
-4.4341213 -13.48778 -1.410504
-5.9430634 -13.48778 -1.410504
-7.4520113 -13.48778 -1.410504
-8.9609241 -13.48778 -1.410504
-10.469895 -13.48778 -1.410504
-11.978808 -13.48778 -1.410504
-13.48778 -13.48778 -1.410504
-14.996692 -13.48778 -1.410504
-16.505664 -13.48778 -1.410504
-18.014576 -13.48778 -1.410504
-19.523548 -13.48778 -1.410504
-21.032461 -13.48778 -1.410504
-22.541432 -13.48778 -1.410504
-24.050345 -13.48778 -1.410504
-25.559316 -13.48778 -1.410504
-27.068229 -13.48778 -1.410504
-28.5772 -13.48778 -1.410504
-30.091852 -13.48778 -1.410504
-1.410504 -14.996692 -1.410504
-2.9251851 -14.996692 -1.410504
-4.4341213 -14.996692 -1.410504
-5.9430634 -14.996692 -1.410504
-7.4520113 -14.996692 -1.410504
-8.9609241 -14.996692 -1.410504
-10.469895 -14.996692 -1.410504
-11.978808 -14.996692 -1.410504
-13.48778 -14.996692 -1.410504
-14.996692 -14.996692 -1.410504
-16.505664 -14.996692 -1.410504
-18.014576 -14.996692 -1.410504
-19.523548 -14.996692 -1.410504
-21.032461 -14.996692 -1.410504
-22.541432 -14.996692 -1.410504
-24.050345 -14.996692 -1.410504
-25.559316 -14.996692 -1.410504
-27.068229 -14.996692 -1.410504
-28.5772 -14.996692 -1.410504
-30.091852 -14.996692 -1.410504
-1.410504 -16.505664 -1.410504
-2.9251851 -16.505664 -1.410504
-4.4341213 -16.505664 -1.410504
-5.9430634 -16.505664 -1.410504
-7.4520113 -16.505664 -1.410504
-8.9609241 -16.505664 -1.410504
-10.469895 -16.505664 -1.410504
-11.978808 -16.505664 -1.410504
-13.48778 -16.505664 -1.410504
-14.996692 -16.505664 -1.410504
-16.505664 -16.505664 -1.410504
-18.014576 -16.505664 -1.410504
-19.523548 -16.505664 -1.410504
-21.032461 -16.505664 -1.410504
-22.541432 -16.505664 -1.410504
-24.050345 -16.505664 -1.410504
-25.559316 -16.505664 -1.410504
-27.068229 -16.505664 -1.410504
-28.5772 -16.505664 -1.410504
-30.091852 -16.505664 -1.410504
-1.410504 -18.014576 -1.410504
-2.9251851 -18.014576 -1.410504
-4.4341213 -18.014576 -1.410504
-5.9430634 -18.014576 -1.410504
-7.4520113 -18.014576 -1.410504
-8.9609241 -18.014576 -1.410504
-10.469895 -18.014576 -1.410504
-11.978808 -18.014576 -1.410504
-13.48778 -18.014576 -1.410504
-14.996692 -18.014576 -1.410504
-16.505664 -18.014576 -1.410504
-18.014576 -18.014576 -1.410504
-19.523548 -18.014576 -1.410504
-21.032461 -18.014576 -1.410504
-22.541432 -18.014576 -1.410504
-24.050345 -18.014576 -1.410504
-25.559316 -18.014576 -1.410504
-27.068229 -18.014576 -1.410504
-28.5772 -18.014576 -1.410504
-30.091852 -18.014576 -1.410504
-1.410504 -19.523548 -1.410504
-2.9251851 -19.523548 -1.410504
-4.4341213 -19.523548 -1.410504
-5.9430634 -19.523548 -1.410504
-7.4520113 -19.523548 -1.410504
-8.9609241 -19.523548 -1.410504
-10.469895 -19.523548 -1.410504
-11.978808 -19.523548 -1.410504
-13.48778 -19.523548 -1.410504
-14.996692 -19.523548 -1.410504
-16.505664 -19.523548 -1.410504
-18.014576 -19.523548 -1.410504
-19.523548 -19.523548 -1.410504
-21.032461 -19.523548 -1.410504
-22.541432 -19.523548 -1.410504
-24.050345 -19.523548 -1.410504
-25.559316 -19.523548 -1.410504
-27.068229 -19.523548 -1.410504
-28.5772 -19.523548 -1.410504
-30.091852 -19.523548 -1.410504
-1.410504 -21.032461 -1.410504
-2.9251851 -21.032461 -1.410504
-4.4341213 -21.032461 -1.410504
-5.9430634 -21.032461 -1.410504
-7.4520113 -21.032461 -1.410504
-8.9609241 -21.032461 -1.410504
-10.469895 -21.032461 -1.410504
-11.978808 -21.032461 -1.410504
-13.48778 -21.032461 -1.410504
-14.996692 -21.032461 -1.410504
-16.505664 -21.032461 -1.410504
-18.014576 -21.032461 -1.410504
-19.523548 -21.032461 -1.410504
-21.032461 -21.032461 -1.410504
-22.541432 -21.032461 -1.410504
-24.050345 -21.032461 -1.410504
-25.559316 -21.032461 -1.410504
-27.068229 -21.032461 -1.410504
-28.5772 -21.032461 -1.410504
-30.091852 -21.032461 -1.410504
-1.410504 -22.541432 -1.410504
-2.9251851 -22.541432 -1.410504
-4.4341213 -22.541432 -1.410504
-5.9430634 -22.541432 -1.410504
-7.4520113 -22.541432 -1.410504
-8.9609241 -22.541432 -1.410504
-10.469895 -22.541432 -1.410504
-11.978808 -22.541432 -1.410504
-13.48778 -22.541432 -1.410504
-14.996692 -22.541432 -1.410504
-16.505664 -22.541432 -1.410504
-18.014576 -22.541432 -1.410504
-19.523548 -22.541432 -1.410504
-21.032461 -22.541432 -1.410504
-22.541432 -22.541432 -1.410504
-24.050345 -22.541432 -1.410504
-25.559316 -22.541432 -1.410504
-27.068229 -22.541432 -1.410504
-28.5772 -22.541432 -1.410504
-30.091852 -22.541432 -1.410504
-1.410504 -24.050345 -1.410504
-2.9251851 -24.050345 -1.410504
-4.4341213 -24.050345 -1.410504
-5.9430634 -24.050345 -1.410504
-7.4520113 -24.050345 -1.410504
-8.9609241 -24.050345 -1.410504
-10.469895 -24.050345 -1.410504
-11.978808 -24.050345 -1.410504
-13.48778 -24.050345 -1.410504
-14.996692 -24.050345 -1.410504
-16.505664 -24.050345 -1.410504
-18.014576 -24.050345 -1.410504
-19.523548 -24.050345 -1.410504
-21.032461 -24.050345 -1.410504
-22.541432 -24.050345 -1.410504
-24.050345 -24.050345 -1.410504
-25.559316 -24.050345 -1.410504
-27.068229 -24.050345 -1.410504
-28.5772 -24.050345 -1.410504
-30.091852 -24.050345 -1.410504
-1.410504 -25.559316 -1.410504
-2.9251851 -25.559316 -1.410504
-4.4341213 -25.559316 -1.410504
-5.9430634 -25.559316 -1.410504
-7.4520113 -25.559316 -1.410504
-8.9609241 -25.559316 -1.410504
-10.469895 -25.559316 -1.410504
-11.978808 -25.559316 -1.410504
-13.48778 -25.559316 -1.410504
-14.996692 -25.559316 -1.410504
-16.505664 -25.559316 -1.410504
-18.014576 -25.559316 -1.410504
-19.523548 -25.559316 -1.410504
-21.032461 -25.559316 -1.410504
-22.541432 -25.559316 -1.410504
-24.050345 -25.559316 -1.410504
-25.559316 -25.559316 -1.410504
-27.068229 -25.559316 -1.410504
-28.5772 -25.559316 -1.410504
-30.091852 -25.559316 -1.410504
-1.410504 -27.068229 -1.410504
-2.9251851 -27.068229 -1.410504
-4.4341213 -27.068229 -1.410504
-5.9430634 -27.068229 -1.410504
-7.4520113 -27.068229 -1.410504
-8.9609241 -27.068229 -1.410504
-10.469895 -27.068229 -1.410504
-11.978808 -27.068229 -1.410504
-13.48778 -27.068229 -1.410504
-14.996692 -27.068229 -1.410504
-16.505664 -27.068229 -1.410504
-18.014576 -27.068229 -1.410504
-19.523548 -27.068229 -1.410504
-21.032461 -27.068229 -1.410504
-22.541432 -27.068229 -1.410504
-24.050345 -27.068229 -1.410504
-25.559316 -27.068229 -1.410504
-27.068229 -27.068229 -1.410504
-28.5772 -27.068229 -1.410504
-30.091852 -27.068229 -1.410504
-1.410504 -28.5772 -1.410504
-2.9251851 -28.5772 -1.410504
-4.4341213 -28.5772 -1.410504
-5.9430634 -28.5772 -1.410504
-7.4520113 -28.5772 -1.410504
-8.9609241 -28.5772 -1.410504
-10.469895 -28.5772 -1.410504
-11.978808 -28.5772 -1.410504
-13.48778 -28.5772 -1.410504
-14.996692 -28.5772 -1.410504
-16.505664 -28.5772 -1.410504
-18.014576 -28.5772 -1.410504
-19.523548 -28.5772 -1.410504
-21.032461 -28.5772 -1.410504
-22.541432 -28.5772 -1.410504
-24.050345 -28.5772 -1.410504
-25.559316 -28.5772 -1.410504
-27.068229 -28.5772 -1.410504
-28.5772 -28.5772 -1.410504
-30.091852 -28.5772 -1.410504
-1.410504 -30.091852 -1.410504
-2.9251851 -30.091852 -1.410504
-4.4341213 -30.091852 -1.410504
-5.9430634 -30.091852 -1.410504
-7.4520113 -30.091852 -1.410504
-8.9609241 -30.091852 -1.410504
-10.469895 -30.091852 -1.410504
-11.978808 -30.091852 -1.410504
-13.48778 -30.091852 -1.410504
-14.996692 -30.091852 -1.410504
-16.505664 -30.091852 -1.410504
-18.014576 -30.091852 -1.410504
-19.523548 -30.091852 -1.410504
-21.032461 -30.091852 -1.410504
-22.541432 -30.091852 -1.410504
-24.050345 -30.091852 -1.410504
-25.559316 -30.091852 -1.410504
-27.068229 -30.091852 -1.410504
-28.5772 -30.091852 -1.410504
-30.091852 -30.091852 -1.410504
-1.410504 -1.410504 -2.9251851
-2.9251851 -1.410504 -2.9251851
-4.4341213 -1.410504 -2.9251851
-5.9430634 -1.410504 -2.9251851
-7.4520113 -1.410504 -2.9251851
-8.9609241 -1.410504 -2.9251851
-10.469895 -1.410504 -2.9251851
-11.978808 -1.410504 -2.9251851
-13.48778 -1.410504 -2.9251851
-14.996692 -1.410504 -2.9251851
-16.505664 -1.410504 -2.9251851
-18.014576 -1.410504 -2.9251851
-19.523548 -1.410504 -2.9251851
-21.032461 -1.410504 -2.9251851
-22.541432 -1.410504 -2.9251851
-24.050345 -1.410504 -2.9251851
-25.559316 -1.410504 -2.9251851
-27.068229 -1.410504 -2.9251851
-28.5772 -1.410504 -2.9251851
-30.091852 -1.410504 -2.9251851
-1.410504 -2.9251851 -2.9251851
-2.9251851 -2.9251851 -2.9251851
-4.4341213 -2.9251851 -2.9251851
-5.9430634 -2.9251851 -2.9251851
-7.4520113 -2.9251851 -2.9251851
-8.9609241 -2.9251851 -2.9251851
-10.469895 -2.9251851 -2.9251851
-11.978808 -2.9251851 -2.9251851
-13.48778 -2.9251851 -2.9251851
-14.996692 -2.9251851 -2.9251851
-16.505664 -2.9251851 -2.9251851
-18.014576 -2.9251851 -2.9251851
-19.523548 -2.9251851 -2.9251851
-21.032461 -2.9251851 -2.9251851
-22.541432 -2.9251851 -2.9251851
-24.050345 -2.9251851 -2.9251851
-25.559316 -2.9251851 -2.9251851
-27.068229 -2.9251851 -2.9251851
-28.5772 -2.9251851 -2.9251851