# vtk DataFile Version 4.0
hesp visualization file
ASCII
DATASET UNSTRUCTURED_GRID
POINTS 3000 double
-0.28532677 -0.28532677 -0.28532677
1.2456182 -0.28532677 -0.28532677
2.8788469 -0.28532677 -0.28532677
4.5120819 -0.28532677 -0.28532677
6.1453233 -0.28532677 -0.28532677
7.7785266 -0.28532677 -0.28532677
9.4117933 -0.28532677 -0.28532677
11.044997 -0.28532677 -0.28532677
12.678263 -0.28532677 -0.28532677
14.311467 -0.28532677 -0.28532677
15.944733 -0.28532677 -0.28532677
17.577937 -0.28532677 -0.28532677
19.211203 -0.28532677 -0.28532677
20.844407 -0.28532677 -0.28532677
22.477673 -0.28532677 -0.28532677
24.110877 -0.28532677 -0.28532677
25.744143 -0.28532677 -0.28532677
27.377347 -0.28532677 -0.28532677
29.010614 -0.28532677 -0.28532677
30.638298 -0.28532677 -0.28532677
-0.28532677 1.2456182 -0.28532677
1.2456182 1.2456182 -0.28532677
2.8788469 1.2456182 -0.28532677
4.5120819 1.2456182 -0.28532677
6.1453233 1.2456182 -0.28532677
7.7785266 1.2456182 -0.28532677
9.4117933 1.2456182 -0.28532677
11.044997 1.2456182 -0.28532677
12.678263 1.2456182 -0.28532677
14.311467 1.2456182 -0.28532677
15.944733 1.2456182 -0.28532677
17.577937 1.2456182 -0.28532677
19.211203 1.2456182 -0.28532677
20.844407 1.2456182 -0.28532677
22.477673 1.2456182 -0.28532677
24.110877 1.2456182 -0.28532677
25.744143 1.2456182 -0.28532677
27.377347 1.2456182 -0.28532677
29.010614 1.2456182 -0.28532677
30.638298 1.2456182 -0.28532677
-0.28532677 2.8788469 -0.28532677
1.2456182 2.8788469 -0.28532677
2.8788469 2.8788469 -0.28532677
4.5120819 2.8788469 -0.28532677
6.1453233 2.8788469 -0.28532677
7.7785266 2.8788469 -0.28532677
9.4117933 2.8788469 -0.28532677
11.044997 2.8788469 -0.28532677
12.678263 2.8788469 -0.28532677
14.311467 2.8788469 -0.28532677
15.944733 2.8788469 -0.28532677
17.577937 2.8788469 -0.28532677
19.211203 2.8788469 -0.28532677
20.844407 2.8788469 -0.28532677
22.477673 2.8788469 -0.28532677
24.110877 2.8788469 -0.28532677
25.744143 2.8788469 -0.28532677
27.377347 2.8788469 -0.28532677
29.010614 2.8788469 -0.28532677
30.638298 2.8788469 -0.28532677
-0.28532677 4.5120819 -0.28532677
1.2456182 4.5120819 -0.28532677
2.8788469 4.5120819 -0.28532677
4.5120819 4.5120819 -0.28532677
6.1453233 4.5120819 -0.28532677
7.7785266 4.5120819 -0.28532677
9.4117933 4.5120819 -0.28532677
11.044997 4.5120819 -0.28532677
12.678263 4.5120819 -0.28532677
14.311467 4.5120819 -0.28532677
15.944733 4.5120819 -0.28532677
17.577937 4.5120819 -0.28532677
19.211203 4.5120819 -0.28532677
20.844407 4.5120819 -0.28532677
22.477673 4.5120819 -0.28532677
24.110877 4.5120819 -0.28532677
25.744143 4.5120819 -0.28532677
27.377347 4.5120819 -0.28532677
29.010614 4.5120819 -0.28532677
30.638298 4.5120819 -0.28532677
-0.28532677 6.1453233 -0.28532677
1.2456182 6.1453233 -0.28532677
2.8788469 6.1453233 -0.28532677
4.5120819 6.1453233 -0.28532677
6.1453233 6.1453233 -0.28532677
7.7785266 6.1453233 -0.28532677
9.4117933 6.1453233 -0.28532677
11.044997 6.1453233 -0.28532677
12.678263 6.1453233 -0.28532677
14.311467 6.1453233 -0.28532677
15.944733 6.1453233 -0.28532677
17.577937 6.1453233 -0.28532677
19.211203 6.1453233 -0.28532677
20.844407 6.1453233 -0.28532677
22.477673 6.1453233 -0.28532677
24.110877 6.1453233 -0.28532677
25.744143 6.1453233 -0.28532677
27.377347 6.1453233 -0.28532677
29.010614 6.1453233 -0.28532677
30.638298 6.1453233 -0.28532677
-0.28532677 7.7785266 -0.28532677
1.2456182 7.7785266 -0.28532677
2.8788469 7.7785266 -0.28532677
4.5120819 7.7785266 -0.28532677
6.1453233 7.7785266 -0.28532677
7.7785266 7.7785266 -0.28532677
9.4117933 7.7785266 -0.28532677
11.044997 7.7785266 -0.28532677
12.678263 7.7785266 -0.28532677
14.311467 7.7785266 -0.28532677
15.944733 7.7785266 -0.28532677
17.577937 7.7785266 -0.28532677
19.211203 7.7785266 -0.28532677
20.844407 7.7785266 -0.28532677
22.477673 7.7785266 -0.28532677
24.110877 7.7785266 -0.28532677
25.744143 7.7785266 -0.28532677
27.377347 7.7785266 -0.28532677
29.010614 7.7785266 -0.28532677
30.638298 7.7785266 -0.28532677
-0.28532677 9.4117933 -0.28532677
1.2456182 9.4117933 -0.28532677
2.8788469 9.4117933 -0.28532677
4.5120819 9.4117933 -0.28532677
6.1453233 9.4117933 -0.28532677
7.7785266 9.4117933 -0.28532677
9.4117933 9.4117933 -0.28532677
11.044997 9.4117933 -0.28532677
12.678263 9.4117933 -0.28532677
14.311467 9.4117933 -0.28532677
15.944733 9.4117933 -0.28532677
17.577937 9.4117933 -0.28532677
19.211203 9.4117933 -0.28532677
20.844407 9.4117933 -0.28532677
22.477673 9.4117933 -0.28532677
24.110877 9.4117933 -0.28532677
25.744143 9.4117933 -0.28532677
27.377347 9.4117933 -0.28532677
29.010614 9.4117933 -0.28532677
30.638298 9.4117933 -0.28532677
-0.28532677 11.044997 -0.28532677
1.2456182 11.044997 -0.28532677
2.8788469 11.044997 -0.28532677
4.5120819 11.044997 -0.28532677
6.1453233 11.044997 -0.28532677
7.7785266 11.044997 -0.28532677
9.4117933 11.044997 -0.28532677
11.044997 11.044997 -0.28532677
12.678263 11.044997 -0.28532677
14.311467 11.044997 -0.28532677
15.944733 11.044997 -0.28532677
17.577937 11.044997 -0.28532677
19.211203 11.044997 -0.28532677
20.844407 11.044997 -0.28532677
22.477673 11.044997 -0.28532677
24.110877 11.044997 -0.28532677
25.744143 11.044997 -0.28532677
27.377347 11.044997 -0.28532677
29.010614 11.044997 -0.28532677
30.638298 11.044997 -0.28532677
-0.28532677 12.678263 -0.28532677
1.2456182 12.678263 -0.28532677
2.8788469 12.678263 -0.28532677
4.5120819 12.678263 -0.28532677
6.1453233 12.678263 -0.28532677
7.7785266 12.678263 -0.28532677
9.4117933 12.678263 -0.28532677
11.044997 12.678263 -0.28532677
12.678263 12.678263 -0.28532677
14.311467 12.678263 -0.28532677
15.944733 12.678263 -0.28532677
17.577937 12.678263 -0.28532677
19.211203 12.678263 -0.28532677
20.844407 12.678263 -0.28532677
22.477673 12.678263 -0.28532677
24.110877 12.678263 -0.28532677
25.744143 12.678263 -0.28532677
27.377347 12.678263 -0.28532677
29.010614 12.678263 -0.28532677
30.638298 12.678263 -0.28532677
-0.28532677 14.311467 -0.28532677
1.2456182 14.311467 -0.28532677
2.8788469 14.311467 -0.28532677
4.5120819 14.311467 -0.28532677
6.1453233 14.311467 -0.28532677
7.7785266 14.311467 -0.28532677
9.4117933 14.311467 -0.28532677
11.044997 14.311467 -0.28532677
12.678263 14.311467 -0.28532677
14.311467 14.311467 -0.28532677
15.944733 14.311467 -0.28532677
17.577937 14.311467 -0.28532677
19.211203 14.311467 -0.28532677
20.844407 14.311467 -0.28532677
22.477673 14.311467 -0.28532677
24.110877 14.311467 -0.28532677
25.744143 14.311467 -0.28532677
27.377347 14.311467 -0.28532677
29.010614 14.311467 -0.28532677
30.638298 14.311467 -0.28532677
-0.28532677 15.944733 -0.28532677
1.2456182 15.944733 -0.28532677
2.8788469 15.944733 -0.28532677
4.5120819 15.944733 -0.28532677
6.1453233 15.944733 -0.28532677
7.7785266 15.944733 -0.28532677
9.4117933 15.944733 -0.28532677
11.044997 15.944733 -0.28532677
12.678263 15.944733 -0.28532677
14.311467 15.944733 -0.28532677
15.944733 15.944733 -0.28532677
17.577937 15.944733 -0.28532677
19.211203 15.944733 -0.28532677
20.844407 15.944733 -0.28532677
22.477673 15.944733 -0.28532677
24.110877 15.944733 -0.28532677
25.744143 15.944733 -0.28532677
27.377347 15.944733 -0.28532677
29.010614 15.944733 -0.28532677
30.638298 15.944733 -0.28532677
-0.28532677 17.577937 -0.28532677
1.2456182 17.577937 -0.28532677
2.8788469 17.577937 -0.28532677
4.5120819 17.577937 -0.28532677
6.1453233 17.577937 -0.28532677
7.7785266 17.577937 -0.28532677
9.4117933 17.577937 -0.28532677
11.044997 17.577937 -0.28532677
12.678263 17.577937 -0.28532677
14.311467 17.577937 -0.28532677
15.944733 17.577937 -0.28532677
17.577937 17.577937 -0.28532677
19.211203 17.577937 -0.28532677
20.844407 17.577937 -0.28532677
22.477673 17.577937 -0.28532677
24.110877 17.577937 -0.28532677
25.744143 17.577937 -0.28532677
27.377347 17.577937 -0.28532677
29.010614 17.577937 -0.28532677
30.638298 17.577937 -0.28532677
-0.28532677 19.211203 -0.28532677
1.2456182 19.211203 -0.28532677
2.8788469 19.211203 -0.28532677
4.5120819 19.211203 -0.28532677
6.1453233 19.211203 -0.28532677
7.7785266 19.211203 -0.28532677
9.4117933 19.211203 -0.28532677
11.044997 19.211203 -0.28532677
12.678263 19.211203 -0.28532677
14.311467 19.211203 -0.28532677
15.944733 19.211203 -0.28532677
17.577937 19.211203 -0.28532677
19.211203 19.211203 -0.28532677
20.844407 19.211203 -0.28532677
22.477673 19.211203 -0.28532677
24.110877 19.211203 -0.28532677
25.744143 19.211203 -0.28532677
27.377347 19.211203 -0.28532677
29.010614 19.211203 -0.28532677
30.638298 19.211203 -0.28532677
-0.28532677 20.844407 -0.28532677
1.2456182 20.844407 -0.28532677
2.8788469 20.844407 -0.28532677
4.5120819 20.844407 -0.28532677
6.1453233 20.844407 -0.28532677
7.7785266 20.844407 -0.28532677
9.4117933 20.844407 -0.28532677
11.044997 20.844407 -0.28532677
12.678263 20.844407 -0.28532677
14.311467 20.844407 -0.28532677
15.944733 20.844407 -0.28532677
17.577937 20.844407 -0.28532677
19.211203 20.844407 -0.28532677
20.844407 20.844407 -0.28532677
22.477673 20.844407 -0.28532677
24.110877 20.844407 -0.28532677
25.744143 20.844407 -0.28532677
27.377347 20.844407 -0.28532677
29.010614 20.844407 -0.28532677
30.638298 20.844407 -0.28532677
-0.28532677 22.477673 -0.28532677
1.2456182 22.477673 -0.28532677
2.8788469 22.477673 -0.28532677
4.5120819 22.477673 -0.28532677
6.1453233 22.477673 -0.28532677
7.7785266 22.477673 -0.28532677
9.4117933 22.477673 -0.28532677
11.044997 22.477673 -0.28532677
12.678263 22.477673 -0.28532677
14.311467 22.477673 -0.28532677
15.944733 22.477673 -0.28532677
17.577937 22.477673 -0.28532677
19.211203 22.477673 -0.28532677
20.844407 22.477673 -0.28532677
22.477673 22.477673 -0.28532677
24.110877 22.477673 -0.28532677
25.744143 22.477673 -0.28532677
27.377347 22.477673 -0.28532677
29.010614 22.477673 -0.28532677
30.638298 22.477673 -0.28532677
-0.28532677 24.110877 -0.28532677
1.2456182 24.110877 -0.28532677
2.8788469 24.110877 -0.28532677
4.5120819 24.110877 -0.28532677
6.1453233 24.110877 -0.28532677
7.7785266 24.110877 -0.28532677
9.4117933 24.110877 -0.28532677
[...]
POINT_DATA 3000
SCALARS m double
LOOKUP_TABLE default
1
1
1
1
1
1
1
1
1
1
1
1
1
1
1
1
1
1
1
1
1
1
1
1
1
1
1
1
1
1
1
1
1
1
1
1
1
1
1
1
1
1
1
1
1
1
1
1
1
1
1
1
1
1
1
1
1
1
1
1
1
1
1
1
1
1
1
1
1
1
1
1
1
1
1
1
1
1
1
1
1
1
1
1
1
1
1
1
1
1
1
1
1
1
1
1
1
1
1
1
1
1
1
1
1
1
1
1
1
1
1
1
1
1
1
1
1
1
1
1
1
1
1
1
1
1
1
1
1
1
1
1
1
1
1
1
1
1
1
1
1
1
1
1
1
1
1
1
1
1
1
1
1
1
1
1
1
1
1
1
1
1
1
1
1
1
1
1
1
1
1
1
1
1
1
1
1
1
1
1
1
1
1
1
1
1
1
1
1
1
1
1
1
1
1
1
1
1
1
1
1
1
1
1
1
1
1
1
1
1
1
1
1
1
1
1
1
1
1
1
1
1
1
1
1
1
1
1
1
1
1
1
1
1
1
1
1
1
1
1
1
1
1
1
1
1
1
1
1
1
1
1
1
1
1
1
1
1
1
1
1
1
1
1
1
1
1
1
1
1
1
1
1
1
1
1
1
1
1
1
1
1
1
1
1
1
1
1
1
1
1
1
1
1
1
1
1
1
1
1
1
1
1
1
1
1
1
1
1
1
1
1
1
1
1
1
1
1
1
1
1
1
1
1
1
1
1
1
1
1
1
1
1
1
1
1
1
1
1
1
1
1
1
1
1
1
1
1
1
1
1
1
1
1
1
1
1
1
1
1
1
1
1
1
1
1
1
1
1
1
1
1
1
1
1
1
1
1
1
1
1
1
1
1
1
1
1
1
1
1
1
1
1
1
1
1
1
1
1
1
1
1
1
1
1
1
1
1
1
1
1
1
1
1
1
1
1
1
1
1
1
1
1
1
1
1
1
1
1
1
1
1
1
1
1
1
1
1
1
1
1
1
1
1
1
1
1
1
1
1
1
1
1
1
1
1
1
1
1
1
1
1
1
1
1
1
1
1
1
1
1
1
1
1
1
1
1
1
1
1
1
1
1
1
1
1
1
1
1
1
1
1
1
1
1
1
1
1
1
1
1
1
1
1
1
1
1
1
1
1
1
1
1
1
1
1
1
1
1
1
1
1
1
1
1
1
1
1
1
1
1
1
1
1
1
1
1
1
1
1
1
1
1
1
1
1
1
1
1
1
1
1
1
1
1
1
1
1
1
1
1
1
1
1
1
1
1
1
1
1
1
1
1
1
1
1
1
1
1
1
1
1
1
1
1
1
1
1
1
1
1
1
1
1
1
1
1
1
1
1
1
1
1
1
1
1
1
1
1
1
1
1
1
1
1
1
1
1
1
1
1
1
1
1
1
1
1
1
1
1
1
1
1
1
1
1
1
1
1
1
1
1
1
1
1
1
1
1
1
1
1
1
1
1
1
1
1
1
1
1
1
1
1
1
1
1
1
1
1
1
1
1
1
1
1
1
1
1
1
1
1
1
1
1
1
1
1
1
1
1
1
1
1
1
1
1
1
1
1
1
1
1
1
1
1
1
1
1
1
1
1
1
1
1
1
1
1
1
1
1
1
1
1
1
1
1
1
1
1
1
1
1
1
1
1
1
1
1
1
1
1
1
1
1
1
1
1
1
1
1
1
1
1
1
1
1
1
1
1
1
1
1
1
1
1
1
1
1
1
1
1
1
1
1
1
1
1
1
1
1
1
1
1
1
1
1
1
1
1
1
1
1
1
1
1
1
1
1
1
1
1
1
1
1
1
1
1
1
1
1
1
1
1
1
1
1
1
1
1
1
1
1
1
1
1
1
1
1
1
1
1
1
1
1
1
1
1
1
1
1
1
1
1
1
1
1
1
1
1
1
1
1
1
1
1
1
1
1
1
1
1
1
1
1
1
1
1
1
1
1
1
1
1
1
1
1
1
1
1
1
1
1
1
1
1
1
1
1
1
1
1
1
1
1
1
1
1
1
1
1
1
1
1
1
1
1
1
1
1
1
1
1
1
1
1
1
1
1
1
1
1
1
1
1
1
1
1
1
1
1
1
1
1
1
1
1
1
1
1
1
1
1
1
1
1
1
1
1
1
1
1
1
1
1
1
1
1
1
1
1
1
1
1
1
1
1
1
1
1
1
1
1
1
1
1
1
1
1
1
1
1
1
1
1
1
1
1
1
1
1
1
1
1
1
1
1
1
1
1
1
1
1
1
1
1
1
1
1
1
1
1
1
1
1
1
1
1
1
1
1
1
1
1
1
1
1
1
1
1
1
1
1
1
1
1
1
1
1
1
1
1
1
1
1
1
1
1
1
1
1
1
1
1
1
1
1
1
1
1
1
1
1
1
1
1
1
1
1
1
1
1
1
1
1
1
1
1
1
1
1
1
1
1
1
1
1
1
1
1
1
1
1
1
1
1
1
1
1
1
1
1
1
1
1
1
1
1
1
1
1
1
1
1
1
1
1
1
1
1
1
1
1
1
1
1
1
1
1
1
1
1
1
1
1
1
1
1
1
1
1
1
1
1
1
1
1
1
1
1
1
1
1
1
1
1
1
1
1
1
1
1
1
1
1
1
1
1
1
1
1
1
1
1
1
1
1
1
1
1
1
1
1
1
1
1
1
1
1
1
1
1
1
1
1
1
1
1
1
1
1
1
1
1
1
1
1
1
1
1
1
1
1
1
1
1
1
1
1
1
1
1
1
1
1
1
1
1
1
1
1
1
1
1
1
1
1
1
1
1
1
1
1
1
1
1
1
1
1
1
1
1
1
1
1
1
1
1
1
1
1
1
1
1
1
1
1
1
1
1
1
1
1
1
1
1
1
1
1
1
1
1
1
1
1
1
1
1
1
1
1
1
1
1
1
1
1
1
1
1
1
1
1
1
1
1
1
1
1
1
1
1
1
1
1
1
1
1
1
1
1
1
1
1
1
1
1
1
1
1
1
1
1
1
1
1
1
1
1
1
1
1
1
1
1
1
1
1
1
1
1
1
1
1
1
1
1
1
1
1
1
1
1
1
1
1
1
1
1
1
1
1
1
1
1
1
1
1
1
1
1
1
1
1
1
1
1
1
1
1
1
1
1
1
1
1
1
1
1
1
1
1
1
1
1
1
1
1
1
1
1
1
1
1
1
1
1
1
1
1
1
1
1
1
1
1
1
1
1
1
1
1
1
1
1
1
1
1
1
1
1
1
1
1
1
1
1
1
1
1
1
1
1
1
1
1
1
1
1
1
1
1
1
1
1
1
1
1
1
1
1
1
1
1
1
1
1
1
1
1
1
1
1
1
1
1
1
1
1
1
1
1
1
1
1
1
1
1
1
1
1
1
1
1
1
1
1
1
1
1
1
1
1
1
1
1
1
1
1
1
1
1
1
1
1
1
1
1
1
1
1
1
1
1
1
1
1
1
1
1
1
1
1
1
1
1
1
1
1
1
1
1
1
1
1
1
1
1
1
1
1
1
1
1
1
1
1
1
1
1
1
1
1
1
1
1
1
1
1
1
1
1
1
1
1
1
1
1
1
1
1
1
1
1
1
1
1
1
1
1
1
1
1
1
1
1
1
1
1
1
1
1
1
1
1
1
1
1
1
1
1
1
1
1
1
1
1
1
1
1
1
1
1
1
1
1
1
1
1
1
1
1
1
1
1
1
1
1
1
1
1
1
1
1
1
1
1
1
1
1
1
1
1
1
1
1
1
1
1
1
1
1
1
1
1
1
1
1
1
1
1
1
1
1
1
1
1
1
1
1
1
1
1
1
1
1
1
1
1
1
1
1
1
1
1
1
1
1
1
1
1
1
1
1
1
1
1
1
1
1
1
1
1
1
1
1
1
1
1
1
1
1
1
1
1
1
1
1
1
1
1
1
1
1
1
1
1
1
1
1
1
1
1
1
1
1
1
1
1
1
1
1
1
1
1
1
1
1
1
1
1
1
1
1
1
1
1
1
1
1
1
1
1
1
1
1
1
1
1
1
1
1
1
1
1
1
1
1
1
1
1
1
1
1
1
1
1
1
1
1
1
1
1
1
1
1
1
1
1
1
1
1
1
1
1
1
1
1
1
1
1
1
1
1
1
1
1
1
1
1
1
1
1
1
1
1
1
1
1
1
1
1
1
1
1
1
1
1
1
1
1
1
1
1
1
1
1
1
1
1
1
1
1
1
1
1
1
1
1
1
1
1
1
1
1
1
1
1
1
1
1
1
1
1
1
1
1
1
1
1
1
1
1
1
1
1
1
1
1
1
1
1
1
1
1
1
1
1
1
1
1
1
1
1
1
1
1
1
1
1
1
1
1
1
1
1
1
1
1
1
1
1
1
1
1
1
1
1
1
1
1
1
1
1
1
1
1
1
1
1
1
1
1
1
1
1
1
1
1
1
1
1
1
1
1
1
1
1
1
1
1
1
1
1
1
1
1
1
1
1
1
1
1
1
1
1
1
1
1
1
1
1
1
1
1
1
1
1
1
1
1
1
1
1
1
1
1
1
1
1
1
1
1
1
1
1
1
1
1
1
1
1
1
1
1
1
1
1
1
1
1
1
1
1
1
1
1
1
1
1
1
1
1
1
1
1
1
1
1
1
1
1
1
1
1
1
1
1
1
1
1
1
1
1
1
1
1
1
1
1
1
1
1
1
1
1
1
1
1
1
1
1
1
1
1
1
1
1
1
1
1
1
1
1
1
1
1
1
1
1
1
1
1
1
1
1
1
1
1
1
1
1
1
1
1
1
1
1
1
1
1
1
1
1
1
1
1
1
1
1
1
1
1
1
1
1
1
1
1
1
1
1
1
1
1
1
1
1
1
1
1
1
1
1
1
1
1
1
1
1
1
1
1
1
1
1
1
1
1
1
1
1
1
1
1
1
1
1
1
1
1
1
1
1
1
1
1
1
1
1
1
1
1
1
1
1
1
1
1
1
1
1
1
1
1
1
1
1
1
1
1
1
1
1
1
1
1
1
1
1
1
1
1
1
1
1
1
1
1
1
1
1
1
1
1
1
1
1
1
1
1
1
1
1
1
1
1
1
1
1
1
1
1
1
1
1
1
1
1
1
1
1
1
1
1
1
1
1
1
1
1
1
1
1
1
1
1
1
1
1
1
1
1
1
1
1
1
1
1
1
1
1
1
1
1
1
1
1
1
1
1
1
1
1
1
1
1
1
1
1
1
1
1
1
1
1
1
1
1
1
1
1
1
1
1
1
1
1
1
1
1
1
1
1
1
1
1
1
1
1
1
1
1
1
1
1
1
1
1
1
1
1
1
1
1
1
1
1
1
1
1
1
1
1
1
1
1
1
1
1
1
1
1
1
1
1
1
1
1
1
1
1
1
1
1
1
1
1
1
1
1
1
1
1
1
1
1
1
1
1
1
1
1
1
1
1
1
1
1
1
1
1
1
1
1
1
1
1
1
1
1
1
1
1
1
1
1
1
1
1
1
1
1
1
1
1
1
1
1
1
1
1
1
1
1
1
1
1
1
1
1
1
1
1
1
1
1
1
1
1
1
1
1
1
1
1
1
1
1
1
1
1
1
1
1
1
1
1
1
1
1
1
1
1
1
1
1
1
1
1
1
1
1
1
1
1
1
1
1
1
1
1
1
1
1
1
1
1
1
1
1
1
1
1
1
1
1
1
1
1
1
1
1
1
1
1
1
1
1
1
1
1
1
1
1
1
1
1
1
1
1
1
1
1
1
1
1
1
1
1
1
1
1
1
1
1
1
1
1
1
1
1
1
1
1
1
1
1
1
1
1
1
1
1
1
1
1
1
1
1
1
1
1
1
1
1
1
1
1
1
1
1
1
1
1
1
1
1
1
1
1
1
1
1
1
1
1
1
1
1
1
1
1
1
1
1
1
1
1
1
1
1
1
1
1
1
1
1
1
1
1
1
1
1
1
1
1
1
1
1
1
1
1
1
1
1
1
1
1
1
1
1
1
1
1
1
1
1
1
1
1
1
1
1
1
1
1
1
1
1
1
1
1
1
1
1
1
1
1
1
1
1
1
1
1
1
1
1
1
1
1
1
1
1
1
1
1
1
1
1
1
1
1
1
1
1
1
1
1
1
1
1
1
1
1
1
1
1
1
1
1
1
1
1
1
1
1
1
1
1
1
1
1
1
1
1
1
1
1
1
1
1
1
1
1
1
1
1
1
1
1
1
1
1
1
1
1
1
1
1
1
1
1
1
1
1
1
1
1
1
1
1
1
1
1
1
1
1
1
1
1
1
1
1
1
1
1
1
1
1
1
1
1
1
1
1
1
1
1
1
1
1
1
1
1
1
1
1
1
1
1
1
1
1
1
1
1
1
1
1
1
1
1
1
1
1
1
1
1
1
1
1
1
1
1
1
1
1
1
1
1
1
1
1
1
1
1
1
1
1
1
1
1
1
1
1
1
1
1
1
1
1
1
1
1
1
1
1
1
1
1
1
1
1
1
1
1
1
1
1
1
1
1
1
1
1
1
1
1
1
1
1
1
1
1
1
1
1
1
1
1
1
1
1
1
1
1
1
1
1
1
1
1
1
1
1
1
1
1
1
1
1
1
1
1
1
1
1
1
1
1
1
1
1
1
1
1
1
1
1
1
1
1
1
1
1
1
1
1
1
1
1
1
1
1
1
1
1
1
1
1
1
1
1
1
1
1
1
1
1
1
1
1
1
1
1
1
1
1
1
1
1
1
1
1
1
1
1
1
1
1
VECTORS v double
-1.011847 -1.011847 -1.011847
-3.8691742 -1.011847 -1.011847
-5.8650605 -1.011847 -1.011847
-7.8609546 -1.011847 -1.011847
-9.8568564 -1.011847 -1.011847
-11.852712 -1.011847 -1.011847
-13.848645 -1.011847 -1.011847
-15.8445 -1.011847 -1.011847
-17.840433 -1.011847 -1.011847
-19.836288 -1.011847 -1.011847
-21.832221 -1.011847 -1.011847
-23.828076 -1.011847 -1.011847
-25.824009 -1.011847 -1.011847
-27.819864 -1.011847 -1.011847
-29.815797 -1.011847 -1.011847
-31.811653 -1.011847 -1.011847
-33.807585 -1.011847 -1.011847
-35.803441 -1.011847 -1.011847
-37.799374 -1.011847 -1.011847
-39.799699 -1.011847 -1.011847
-1.011847 -3.8691742 -1.011847
-3.8691742 -3.8691742 -1.011847
-5.8650605 -3.8691742 -1.011847
-7.8609546 -3.8691742 -1.011847
-9.8568564 -3.8691742 -1.011847
-11.852712 -3.8691742 -1.011847
-13.848645 -3.8691742 -1.011847
-15.8445 -3.8691742 -1.011847
-17.840433 -3.8691742 -1.011847
-19.836288 -3.8691742 -1.011847
-21.832221 -3.8691742 -1.011847
-23.828076 -3.8691742 -1.011847
-25.824009 -3.8691742 -1.011847
-27.819864 -3.8691742 -1.011847
-29.815797 -3.8691742 -1.011847
-31.811653 -3.8691742 -1.011847
-33.807585 -3.8691742 -1.011847
-35.803441 -3.8691742 -1.011847
-37.799374 -3.8691742 -1.011847
-39.799699 -3.8691742 -1.011847
-1.011847 -5.8650605 -1.011847
-3.8691742 -5.8650605 -1.011847
-5.8650605 -5.8650605 -1.011847
-7.8609546 -5.8650605 -1.011847
-9.8568564 -5.8650605 -1.011847
-11.852712 -5.8650605 -1.011847
-13.848645 -5.8650605 -1.011847
-15.8445 -5.8650605 -1.011847
-17.840433 -5.8650605 -1.011847
-19.836288 -5.8650605 -1.011847
-21.832221 -5.8650605 -1.011847
-23.828076 -5.8650605 -1.011847
-25.824009 -5.8650605 -1.011847
-27.819864 -5.8650605 -1.011847
-29.815797 -5.8650605 -1.011847
-31.811653 -5.8650605 -1.011847
-33.807585 -5.8650605 -1.011847
-35.803441 -5.8650605 -1.011847
-37.799374 -5.8650605 -1.011847
-39.799699 -5.8650605 -1.011847
-1.011847 -7.8609546 -1.011847
-3.8691742 -7.8609546 -1.011847
-5.8650605 -7.8609546 -1.011847
-7.8609546 -7.8609546 -1.011847
-9.8568564 -7.8609546 -1.011847
-11.852712 -7.8609546 -1.011847
-13.848645 -7.8609546 -1.011847
-15.8445 -7.8609546 -1.011847
-17.840433 -7.8609546 -1.011847
-19.836288 -7.8609546 -1.011847
-21.832221 -7.8609546 -1.011847
-23.828076 -7.8609546 -1.011847
-25.824009 -7.8609546 -1.011847
-27.819864 -7.8609546 -1.011847
-29.815797 -7.8609546 -1.011847
-31.811653 -7.8609546 -1.011847
-33.807585 -7.8609546 -1.011847
-35.803441 -7.8609546 -1.011847
-37.799374 -7.8609546 -1.011847
-39.799699 -7.8609546 -1.011847
-1.011847 -9.8568564 -1.011847
-3.8691742 -9.8568564 -1.011847
-5.8650605 -9.8568564 -1.011847
-7.8609546 -9.8568564 -1.011847
-9.8568564 -9.8568564 -1.011847
-11.852712 -9.8568564 -1.011847
-13.848645 -9.8568564 -1.011847
-15.8445 -9.8568564 -1.011847
-17.840433 -9.8568564 -1.011847
-19.836288 -9.8568564 -1.011847
-21.832221 -9.8568564 -1.011847
-23.828076 -9.8568564 -1.011847
-25.824009 -9.8568564 -1.011847
-27.819864 -9.8568564 -1.011847
-29.815797 -9.8568564 -1.011847
-31.811653 -9.8568564 -1.011847
-33.807585 -9.8568564 -1.011847
-35.803441 -9.8568564 -1.011847
-37.799374 -9.8568564 -1.011847
-39.799699 -9.8568564 -1.011847
-1.011847 -11.852712 -1.011847
-3.8691742 -11.852712 -1.011847
-5.8650605 -11.852712 -1.011847
-7.8609546 -11.852712 -1.011847
-9.8568564 -11.852712 -1.011847
-11.852712 -11.852712 -1.011847
-13.848645 -11.852712 -1.011847
-15.8445 -11.852712 -1.011847
-17.840433 -11.852712 -1.011847
-19.836288 -11.852712 -1.011847
-21.832221 -11.852712 -1.011847
-23.828076 -11.852712 -1.011847
-25.824009 -11.852712 -1.011847
-27.819864 -11.852712 -1.011847
-29.815797 -11.852712 -1.011847
-31.811653 -11.852712 -1.011847
-33.807585 -11.852712 -1.011847
-35.803441 -11.852712 -1.011847
-37.799374 -11.852712 -1.011847
-39.799699 -11.852712 -1.011847
-1.011847 -13.848645 -1.011847
-3.8691742 -13.848645 -1.011847
-5.8650605 -13.848645 -1.011847
-7.8609546 -13.848645 -1.011847
-9.8568564 -13.848645 -1.011847
-11.852712 -13.848645 -1.011847
-13.848645 -13.848645 -1.011847
-15.8445 -13.848645 -1.011847
-17.840433 -13.848645 -1.011847
-19.836288 -13.848645 -1.011847
-21.832221 -13.848645 -1.011847
-23.828076 -13.848645 -1.011847
-25.824009 -13.848645 -1.011847
-27.819864 -13.848645 -1.011847
-29.815797 -13.848645 -1.011847
-31.811653 -13.848645 -1.011847
-33.807585 -13.848645 -1.011847
-35.803441 -13.848645 -1.011847
-37.799374 -13.848645 -1.011847
-39.799699 -13.848645 -1.011847
-1.011847 -15.8445 -1.011847
-3.8691742 -15.8445 -1.011847
-5.8650605 -15.8445 -1.011847
-7.8609546 -15.8445 -1.011847
-9.8568564 -15.8445 -1.011847
-11.852712 -15.8445 -1.011847
-13.848645 -15.8445 -1.011847
-15.8445 -15.8445 -1.011847
-17.840433 -15.8445 -1.011847
-19.836288 -15.8445 -1.011847
-21.832221 -15.8445 -1.011847
-23.828076 -15.8445 -1.011847
-25.824009 -15.8445 -1.011847
-27.819864 -15.8445 -1.011847
-29.815797 -15.8445 -1.011847
-31.811653 -15.8445 -1.011847
-33.807585 -15.8445 -1.011847
-35.803441 -15.8445 -1.011847
-37.799374 -15.8445 -1.011847
-39.799699 -15.8445 -1.011847
-1.011847 -17.840433 -1.011847
-3.8691742 -17.840433 -1.011847
-5.8650605 -17.840433 -1.011847
-7.8609546 -17.840433 -1.011847
-9.8568564 -17.840433 -1.011847
-11.852712 -17.840433 -1.011847
-13.848645 -17.840433 -1.011847
-15.8445 -17.840433 -1.011847
-17.840433 -17.840433 -1.011847
-19.836288 -17.840433 -1.011847
-21.832221 -17.840433 -1.011847
-23.828076 -17.840433 -1.011847
-25.824009 -17.840433 -1.011847
-27.819864 -17.840433 -1.011847
-29.815797 -17.840433 -1.011847
-31.811653 -17.840433 -1.011847
-33.807585 -17.840433 -1.011847
-35.803441 -17.840433 -1.011847
-37.799374 -17.840433 -1.011847
-39.799699 -17.840433 -1.011847
-1.011847 -19.836288 -1.011847
-3.8691742 -19.836288 -1.011847
-5.8650605 -19.836288 -1.011847
-7.8609546 -19.836288 -1.011847
-9.8568564 -19.836288 -1.011847
-11.852712 -19.836288 -1.011847
-13.848645 -19.836288 -1.011847
-15.8445 -19.836288 -1.011847
-17.840433 -19.836288 -1.011847
-19.836288 -19.836288 -1.011847
-21.832221 -19.836288 -1.011847
-23.828076 -19.836288 -1.011847
-25.824009 -19.836288 -1.011847
-27.819864 -19.836288 -1.011847
-29.815797 -19.836288 -1.011847
-31.811653 -19.836288 -1.011847
-33.807585 -19.836288 -1.011847
-35.803441 -19.836288 -1.011847
-37.799374 -19.836288 -1.011847
-39.799699 -19.836288 -1.011847
-1.011847 -21.832221 -1.011847
-3.8691742 -21.832221 -1.011847
-5.8650605 -21.832221 -1.011847
-7.8609546 -21.832221 -1.011847
-9.8568564 -21.832221 -1.011847
-11.852712 -21.832221 -1.011847
-13.848645 -21.832221 -1.011847
-15.8445 -21.832221 -1.011847
-17.840433 -21.832221 -1.011847
-19.836288 -21.832221 -1.011847
-21.832221 -21.832221 -1.011847
-23.828076 -21.832221 -1.011847
-25.824009 -21.832221 -1.011847
-27.819864 -21.832221 -1.011847
-29.815797 -21.832221 -1.011847
-31.811653 -21.832221 -1.011847
-33.807585 -21.832221 -1.011847
-35.803441 -21.832221 -1.011847
-37.799374 -21.832221 -1.011847
-39.799699 -21.832221 -1.011847
-1.011847 -23.828076 -1.011847
-3.8691742 -23.828076 -1.011847
-5.8650605 -23.828076 -1.011847
-7.8609546 -23.828076 -1.011847
-9.8568564 -23.828076 -1.011847
-11.852712 -23.828076 -1.011847
-13.848645 -23.828076 -1.011847
-15.8445 -23.828076 -1.011847
-17.840433 -23.828076 -1.011847
-19.836288 -23.828076 -1.011847
-21.832221 -23.828076 -1.011847
-23.828076 -23.828076 -1.011847
-25.824009 -23.828076 -1.011847
-27.819864 -23.828076 -1.011847
-29.815797 -23.828076 -1.011847
-31.811653 -23.828076 -1.011847
-33.807585 -23.828076 -1.011847
-35.803441 -23.828076 -1.011847
-37.799374 -23.828076 -1.011847
-39.799699 -23.828076 -1.011847
-1.011847 -25.824009 -1.011847
-3.8691742 -25.824009 -1.011847
-5.8650605 -25.824009 -1.011847
-7.8609546 -25.824009 -1.011847
-9.8568564 -25.824009 -1.011847
-11.852712 -25.824009 -1.011847
-13.848645 -25.824009 -1.011847
-15.8445 -25.824009 -1.011847
-17.840433 -25.824009 -1.011847
-19.836288 -25.824009 -1.011847
-21.832221 -25.824009 -1.011847
-23.828076 -25.824009 -1.011847
-25.824009 -25.824009 -1.011847
-27.819864 -25.824009 -1.011847
-29.815797 -25.824009 -1.011847
-31.811653 -25.824009 -1.011847
-33.807585 -25.824009 -1.011847
-35.803441 -25.824009 -1.011847
-37.799374 -25.824009 -1.011847
-39.799699 -25.824009 -1.011847
-1.011847 -27.819864 -1.011847
-3.8691742 -27.819864 -1.011847
-5.8650605 -27.819864 -1.011847
-7.8609546 -27.819864 -1.011847
-9.8568564 -27.819864 -1.011847
-11.852712 -27.819864 -1.011847
-13.848645 -27.819864 -1.011847
-15.8445 -27.819864 -1.011847
-17.840433 -27.819864 -1.011847
-19.836288 -27.819864 -1.011847
-21.832221 -27.819864 -1.011847
-23.828076 -27.819864 -1.011847
-25.824009 -27.819864 -1.011847
-27.819864 -27.819864 -1.011847
-29.815797 -27.819864 -1.011847
-31.811653 -27.819864 -1.011847
-33.807585 -27.819864 -1.011847
-35.803441 -27.819864 -1.011847
-37.799374 -27.819864 -1.011847
-39.799699 -27.819864 -1.011847
-1.011847 -29.815797 -1.011847
-3.8691742 -29.815797 -1.011847
-5.8650605 -29.815797 -1.011847
-7.8609546 -29.815797 -1.011847
-9.8568564 -29.815797 -1.011847
-11.852712 -29.815797 -1.011847
-13.848645 -29.815797 -1.011847
-15.8445 -29.815797 -1.011847
-17.840433 -29.815797 -1.011847
-19.836288 -29.815797 -1.011847
-21.832221 -29.815797 -1.011847
-23.828076 -29.815797 -1.011847
-25.824009 -29.815797 -1.011847
-27.819864 -29.815797 -1.011847
-29.815797 -29.815797 -1.011847
-31.811653 -29.815797 -1.011847
-33.807585 -29.815797 -1.011847
-35.803441 -29.815797 -1.011847
-37.799374 -29.815797 -1.011847
-39.799699 -29.815797 -1.011847
-1.011847 -31.811653 -1.011847
-3.8691742 -31.811653 -1.011847
-5.8650605 -31.811653 -1.011847
-7.8609546 -31.811653 -1.011847
-9.8568564 -31.811653 -1.011847
-11.852712 -31.811653 -1.011847
-13.848645 -31.811653 -1.011847
-15.8445 -31.811653 -1.011847
-17.840433 -31.811653 -1.011847
-19.836288 -31.811653 -1.011847
-21.832221 -31.811653 -1.011847
-23.828076 -31.811653 -1.011847
-25.824009 -31.811653 -1.011847
-27.819864 -31.811653 -1.011847
-29.815797 -31.811653 -1.011847
-31.811653 -31.811653 -1.011847
-33.807585 -31.811653 -1.011847
-35.803441 -31.811653 -1.011847
-37.799374 -31.811653 -1.011847
-39.799699 -31.811653 -1.011847
-1.011847 -33.807585 -1.011847
-3.8691742 -33.807585 -1.011847
-5.8650605 -33.807585 -1.011847
-7.8609546 -33.807585 -1.011847
-9.8568564 -33.807585 -1.011847
-11.852712 -33.807585 -1.011847
-13.848645 -33.807585 -1.011847
-15.8445 -33.807585 -1.011847
-17.840433 -33.807585 -1.011847
-19.836288 -33.807585 -1.011847
-21.832221 -33.807585 -1.011847
-23.828076 -33.807585 -1.011847
-25.824009 -33.807585 -1.011847
-27.819864 -33.807585 -1.011847
-29.815797 -33.807585 -1.011847
-31.811653 -33.807585 -1.011847
-33.807585 -33.807585 -1.011847
-35.803441 -33.807585 -1.011847
-37.799374 -33.807585 -1.011847
-39.799699 -33.807585 -1.011847
-1.011847 -35.803441 -1.011847
-3.8691742 -35.803441 -1.011847
-5.8650605 -35.803441 -1.011847
-7.8609546 -35.803441 -1.011847
-9.8568564 -35.803441 -1.011847
-11.852712 -35.803441 -1.011847
-13.848645 -35.803441 -1.011847
-15.8445 -35.803441 -1.011847
-17.840433 -35.803441 -1.011847
-19.836288 -35.803441 -1.011847
-21.832221 -35.803441 -1.011847
-23.828076 -35.803441 -1.011847
-25.824009 -35.803441 -1.011847
-27.819864 -35.803441 -1.011847
-29.815797 -35.803441 -1.011847
-31.811653 -35.803441 -1.011847
-33.807585 -35.803441 -1.011847
-35.803441 -35.803441 -1.011847
-37.799374 -35.803441 -1.011847
-39.799699 -35.803441 -1.011847
-1.011847 -37.799374 -1.011847
-3.8691742 -37.799374 -1.011847
-5.8650605 -37.799374 -1.011847
-7.8609546 -37.799374 -1.011847
-9.8568564 -37.799374 -1.011847
-11.852712 -37.799374 -1.011847
-13.848645 -37.799374 -1.011847
-15.8445 -37.799374 -1.011847
-17.840433 -37.799374 -1.011847
-19.836288 -37.799374 -1.011847
-21.832221 -37.799374 -1.011847
-23.828076 -37.799374 -1.011847
-25.824009 -37.799374 -1.011847
-27.819864 -37.799374 -1.011847
-29.815797 -37.799374 -1.011847
-31.811653 -37.799374 -1.011847
-33.807585 -37.799374 -1.011847
-35.803441 -37.799374 -1.011847
-37.799374 -37.799374 -1.011847
-39.799699 -37.799374 -1.011847
-1.011847 -39.799699 -1.011847
-3.8691742 -39.799699 -1.011847
-5.8650605 -39.799699 -1.011847
-7.8609546 -39.799699 -1.011847
-9.8568564 -39.799699 -1.011847
-11.852712 -39.799699 -1.011847
-13.848645 -39.799699 -1.011847
-15.8445 -39.799699 -1.011847
-17.840433 -39.799699 -1.011847
-19.836288 -39.799699 -1.011847
-21.832221 -39.799699 -1.011847
-23.828076 -39.799699 -1.011847
-25.824009 -39.799699 -1.011847
-27.819864 -39.799699 -1.011847
-29.815797 -39.799699 -1.011847
-31.811653 -39.799699 -1.011847
-33.807585 -39.799699 -1.011847
-35.803441 -39.799699 -1.011847
-37.799374 -39.799699 -1.011847
-39.799699 -39.799699 -1.011847
-1.011847 -1.011847 -3.8691742
-3.8691742 -1.011847 -3.8691742
-5.8650605 -1.011847 -3.8691742
-7.8609546 -1.011847 -3.8691742
-9.8568564 -1.011847 -3.8691742
-11.852712 -1.011847 -3.8691742
-13.848645 -1.011847 -3.8691742
-15.8445 -1.011847 -3.8691742
-17.840433 -1.011847 -3.8691742
-19.836288 -1.011847 -3.8691742
-21.832221 -1.011847 -3.8691742
-23.828076 -1.011847 -3.8691742
-25.824009 -1.011847 -3.8691742
-27.819864 -1.011847 -3.8691742
-29.815797 -1.011847 -3.8691742
-31.811653 -1.011847 -3.8691742
-33.807585 -1.011847 -3.8691742
-35.803441 -1.011847 -3.8691742
-37.799374 -1.011847 -3.8691742
-39.799699 -1.011847 -3.8691742
-1.011847 -3.8691742 -3.8691742
-3.8691742 -3.8691742 -3.8691742
-5.8650605 -3.8691742 -3.8691742
-7.8609546 -3.8691742 -3.8691742
-9.8568564 -3.8691742 -3.8691742
-11.852712 -3.8691742 -3.8691742
-13.848645 -3.8691742 -3.8691742
-15.8445 -3.8691742 -3.8691742
-17.840433 -3.8691742 -3.8691742
-19.836288 -3.8691742 -3.8691742
-21.832221 -3.8691742 -3.8691742
-23.828076 -3.8691742 -3.8691742
-25.824009 -3.8691742 -3.8691742
-27.819864 -3.8691742 -3.8691742
-29.815797 -3.8691742 -3.8691742
-31.811653 -3.8691742 -3.8691742
-33.807585 -3.8691742 -3.8691742
-35.803441 -3.8691742 -3.8691742