# vtk DataFile Version 4.0
hesp visualization file
ASCII
DATASET UNSTRUCTURED_GRID
POINTS 3000 double
0.47899745 0.47899745 0.47899745
3.0335231 0.47899745 0.47899745
5.5890299 0.47899745 0.47899745
8.1445466 0.47899745 0.47899745
10.700073 0.47899745 0.47899745
13.25554 0.47899745 0.47899745
15.811107 0.47899745 0.47899745
18.366574 0.47899745 0.47899745
20.92214 0.47899745 0.47899745
23.477607 0.47899745 0.47899745
26.033174 0.47899745 0.47899745
28.588641 0.47899745 0.47899745
31.144207 0.47899745 0.47899745
33.699674 0.47899745 0.47899745
36.255241 0.47899745 0.47899745
38.810708 0.47899745 0.47899745
41.366274 0.47899745 0.47899745
43.921741 0.47899745 0.47899745
46.477308 0.47899745 0.47899745
49.031784 0.47899745 0.47899745
0.47899745 3.0335231 0.47899745
3.0335231 3.0335231 0.47899745
5.5890299 3.0335231 0.47899745
8.1445466 3.0335231 0.47899745
10.700073 3.0335231 0.47899745
13.25554 3.0335231 0.47899745
15.811107 3.0335231 0.47899745
18.366574 3.0335231 0.47899745
20.92214 3.0335231 0.47899745
23.477607 3.0335231 0.47899745
26.033174 3.0335231 0.47899745
28.588641 3.0335231 0.47899745
31.144207 3.0335231 0.47899745
33.699674 3.0335231 0.47899745
36.255241 3.0335231 0.47899745
38.810708 3.0335231 0.47899745
41.366274 3.0335231 0.47899745
43.921741 3.0335231 0.47899745
46.477308 3.0335231 0.47899745
49.031784 3.0335231 0.47899745
0.47899745 5.5890299 0.47899745
3.0335231 5.5890299 0.47899745
5.5890299 5.5890299 0.47899745
8.1445466 5.5890299 0.47899745
10.700073 5.5890299 0.47899745
13.25554 5.5890299 0.47899745
15.811107 5.5890299 0.47899745
18.366574 5.5890299 0.47899745
20.92214 5.5890299 0.47899745
23.477607 5.5890299 0.47899745
26.033174 5.5890299 0.47899745
28.588641 5.5890299 0.47899745
31.144207 5.5890299 0.47899745
33.699674 5.5890299 0.47899745
36.255241 5.5890299 0.47899745
38.810708 5.5890299 0.47899745
41.366274 5.5890299 0.47899745
43.921741 5.5890299 0.47899745
46.477308 5.5890299 0.47899745
49.031784 5.5890299 0.47899745
0.47899745 8.1445466 0.47899745
3.0335231 8.1445466 0.47899745
5.5890299 8.1445466 0.47899745
8.1445466 8.1445466 0.47899745
10.700073 8.1445466 0.47899745
13.25554 8.1445466 0.47899745
15.811107 8.1445466 0.47899745
18.366574 8.1445466 0.47899745
20.92214 8.1445466 0.47899745
23.477607 8.1445466 0.47899745
26.033174 8.1445466 0.47899745
28.588641 8.1445466 0.47899745
31.144207 8.1445466 0.47899745
33.699674 8.1445466 0.47899745
36.255241 8.1445466 0.47899745
38.810708 8.1445466 0.47899745
41.366274 8.1445466 0.47899745
43.921741 8.1445466 0.47899745
46.477308 8.1445466 0.47899745
49.031784 8.1445466 0.47899745
0.47899745 10.700073 0.47899745
3.0335231 10.700073 0.47899745
5.5890299 10.700073 0.47899745
8.1445466 10.700073 0.47899745
10.700073 10.700073 0.47899745
13.25554 10.700073 0.47899745
15.811107 10.700073 0.47899745
18.366574 10.700073 0.47899745
20.92214 10.700073 0.47899745
23.477607 10.700073 0.47899745
26.033174 10.700073 0.47899745
28.588641 10.700073 0.47899745
31.144207 10.700073 0.47899745
33.699674 10.700073 0.47899745
36.255241 10.700073 0.47899745
38.810708 10.700073 0.47899745
41.366274 10.700073 0.47899745
43.921741 10.700073 0.47899745
46.477308 10.700073 0.47899745
49.031784 10.700073 0.47899745
0.47899745 13.25554 0.47899745
3.0335231 13.25554 0.47899745
5.5890299 13.25554 0.47899745
8.1445466 13.25554 0.47899745
10.700073 13.25554 0.47899745
13.25554 13.25554 0.47899745
15.811107 13.25554 0.47899745
18.366574 13.25554 0.47899745
20.92214 13.25554 0.47899745
23.477607 13.25554 0.47899745
26.033174 13.25554 0.47899745
28.588641 13.25554 0.47899745
31.144207 13.25554 0.47899745
33.699674 13.25554 0.47899745
36.255241 13.25554 0.47899745
38.810708 13.25554 0.47899745
41.366274 13.25554 0.47899745
43.921741 13.25554 0.47899745
46.477308 13.25554 0.47899745
49.031784 13.25554 0.47899745
0.47899745 15.811107 0.47899745
3.0335231 15.811107 0.47899745
5.5890299 15.811107 0.47899745
8.1445466 15.811107 0.47899745
10.700073 15.811107 0.47899745
13.25554 15.811107 0.47899745
15.811107 15.811107 0.47899745
18.366574 15.811107 0.47899745
20.92214 15.811107 0.47899745
23.477607 15.811107 0.47899745
26.033174 15.811107 0.47899745
28.588641 15.811107 0.47899745
31.144207 15.811107 0.47899745
33.699674 15.811107 0.47899745
36.255241 15.811107 0.47899745
38.810708 15.811107 0.47899745
41.366274 15.811107 0.47899745
43.921741 15.811107 0.47899745
46.477308 15.811107 0.47899745
49.031784 15.811107 0.47899745
0.47899745 18.366574 0.47899745
3.0335231 18.366574 0.47899745
5.5890299 18.366574 0.47899745
8.1445466 18.366574 0.47899745
10.700073 18.366574 0.47899745
13.25554 18.366574 0.47899745
15.811107 18.366574 0.47899745
18.366574 18.366574 0.47899745
20.92214 18.366574 0.47899745
23.477607 18.366574 0.47899745
26.033174 18.366574 0.47899745
28.588641 18.366574 0.47899745
31.144207 18.366574 0.47899745
33.699674 18.366574 0.47899745
36.255241 18.366574 0.47899745
38.810708 18.366574 0.47899745
41.366274 18.366574 0.47899745
43.921741 18.366574 0.47899745
46.477308 18.366574 0.47899745
49.031784 18.366574 0.47899745
0.47899745 20.92214 0.47899745
3.0335231 20.92214 0.47899745
5.5890299 20.92214 0.47899745
8.1445466 20.92214 0.47899745
10.700073 20.92214 0.47899745
13.25554 20.92214 0.47899745
15.811107 20.92214 0.47899745
18.366574 20.92214 0.47899745
20.92214 20.92214 0.47899745
23.477607 20.92214 0.47899745
26.033174 20.92214 0.47899745
28.588641 20.92214 0.47899745
31.144207 20.92214 0.47899745
33.699674 20.92214 0.47899745
36.255241 20.92214 0.47899745
38.810708 20.92214 0.47899745
41.366274 20.92214 0.47899745
43.921741 20.92214 0.47899745
46.477308 20.92214 0.47899745
49.031784 20.92214 0.47899745
0.47899745 23.477607 0.47899745
3.0335231 23.477607 0.47899745
5.5890299 23.477607 0.47899745
8.1445466 23.477607 0.47899745
10.700073 23.477607 0.47899745
13.25554 23.477607 0.47899745
15.811107 23.477607 0.47899745
18.366574 23.477607 0.47899745
20.92214 23.477607 0.47899745
23.477607 23.477607 0.47899745
26.033174 23.477607 0.47899745
28.588641 23.477607 0.47899745
31.144207 23.477607 0.47899745
33.699674 23.477607 0.47899745
36.255241 23.477607 0.47899745
38.810708 23.477607 0.47899745
41.366274 23.477607 0.47899745
43.921741 23.477607 0.47899745
46.477308 23.477607 0.47899745
49.031784 23.477607 0.47899745
0.47899745 26.033174 0.47899745
3.0335231 26.033174 0.47899745
5.5890299 26.033174 0.47899745
8.1445466 26.033174 0.47899745
10.700073 26.033174 0.47899745
13.25554 26.033174 0.47899745
15.811107 26.033174 0.47899745
18.366574 26.033174 0.47899745
20.92214 26.033174 0.47899745
23.477607 26.033174 0.47899745
26.033174 26.033174 0.47899745
28.588641 26.033174 0.47899745
31.144207 26.033174 0.47899745
33.699674 26.033174 0.47899745
36.255241 26.033174 0.47899745
38.810708 26.033174 0.47899745
41.366274 26.033174 0.47899745
43.921741 26.033174 0.47899745
46.477308 26.033174 0.47899745
49.031784 26.033174 0.47899745
0.47899745 28.588641 0.47899745
3.0335231 28.588641 0.47899745
5.5890299 28.588641 0.47899745
8.1445466 28.588641 0.47899745
10.700073 28.588641 0.47899745
13.25554 28.588641 0.47899745
15.811107 28.588641 0.47899745
18.366574 28.588641 0.47899745
20.92214 28.588641 0.47899745
23.477607 28.588641 0.47899745
26.033174 28.588641 0.47899745
28.588641 28.588641 0.47899745
31.144207 28.588641 0.47899745
33.699674 28.588641 0.47899745
36.255241 28.588641 0.47899745
38.810708 28.588641 0.47899745
41.366274 28.588641 0.47899745
43.921741 28.588641 0.47899745
46.477308 28.588641 0.47899745
49.031784 28.588641 0.47899745
0.47899745 31.144207 0.47899745
3.0335231 31.144207 0.47899745
5.5890299 31.144207 0.47899745
8.1445466 31.144207 0.47899745
10.700073 31.144207 0.47899745
13.25554 31.144207 0.47899745
15.811107 31.144207 0.47899745
18.366574 31.144207 0.47899745
20.92214 31.144207 0.47899745
23.477607 31.144207 0.47899745
26.033174 31.144207 0.47899745
28.588641 31.144207 0.47899745
31.144207 31.144207 0.47899745
33.699674 31.144207 0.47899745
36.255241 31.144207 0.47899745
38.810708 31.144207 0.47899745
41.366274 31.144207 0.47899745
43.921741 31.144207 0.47899745
46.477308 31.144207 0.47899745
49.031784 31.144207 0.47899745
0.47899745 33.699674 0.47899745
3.0335231 33.699674 0.47899745
5.5890299 33.699674 0.47899745
8.1445466 33.699674 0.47899745
10.700073 33.699674 0.47899745
13.25554 33.699674 0.47899745
15.811107 33.699674 0.47899745
18.366574 33.699674 0.47899745
20.92214 33.699674 0.47899745
23.477607 33.699674 0.47899745
26.033174 33.699674 0.47899745
28.588641 33.699674 0.47899745
31.144207 33.699674 0.47899745
33.699674 33.699674 0.47899745
36.255241 33.699674 0.47899745
38.810708 33.699674 0.47899745
41.366274 33.699674 0.47899745
43.921741 33.699674 0.47899745
46.477308 33.699674 0.47899745
49.031784 33.699674 0.47899745
0.47899745 36.255241 0.47899745
3.0335231 36.255241 0.47899745
5.5890299 36.255241 0.47899745
8.1445466 36.255241 0.47899745
10.700073 36.255241 0.47899745
13.25554 36.255241 0.47899745
15.811107 36.255241 0.47899745
18.366574 36.255241 0.47899745
20.92214 36.255241 0.47899745
23.477607 36.255241 0.47899745
26.033174 36.255241 0.47899745
28.588641 36.255241 0.47899745
31.144207 36.255241 0.47899745
33.699674 36.255241 0.47899745
36.255241 36.255241 0.47899745
38.810708 36.255241 0.47899745
41.366274 36.255241 0.47899745
43.921741 36.255241 0.47899745
46.477308 36.255241 0.47899745
49.031784 36.255241 0.47899745
0.47899745 38.810708 0.47899745
3.0335231 38.810708 0.47899745
5.5890299 38.810708 0.47899745
8.1445466 38.810708 0.47899745
10.700073 38.810708 0.47899745
13.25554 38.810708 0.47899745
15.811107 38.810708 0.47899745
18.366574 38.810708 0.47899745
20.92214 38.810708 0.47899745
23.477607 38.810708 0.47899745
26.033174 38.810708 0.47899745
28.588641 38.810708 0.47899745
31.144207 38.810708 0.47899745
33.699674 38.810708 0.47899745
36.255241 38.810708 0.47899745
38.810708 38.810708 0.47899745
41.366274 38.810708 0.47899745
43.921741 38.810708 0.47899745
46.477308 38.810708 0.47899745
49.031784 38.810708 0.47899745
[...]
POINT_DATA 3000
SCALARS m double
LOOKUP_TABLE default
1
1
1
1
1
1
1
1
1
1
1
1
1
1
1
1
1
1
1
1
1
1
1
1
1
1
1
1
1
1
1
1
1
1
1
1
1
1
1
1
1
1
1
1
1
1
1
1
1
1
1
1
1
1
1
1
1
1
1
1
1
1
1
1
1
1
1
1
1
1
1
1
1
1
1
1
1
1
1
1
1
1
1
1
1
1
1
1
1
1
1
1
1
1
1
1
1
1
1
1
1
1
1
1
1
1
1
1
1
1
1
1
1
1
1
1
1
1
1
1
1
1
1
1
1
1
1
1
1
1
1
1
1
1
1
1
1
1
1
1
1
1
1
1
1
1
1
1
1
1
1
1
1
1
1
1
1
1
1
1
1
1
1
1
1
1
1
1
1
1
1
1
1
1
1
1
1
1
1
1
1
1
1
1
1
1
1
1
1
1
1
1
1
1
1
1
1
1
1
1
1
1
1
1
1
1
1
1
1
1
1
1
1
1
1
1
1
1
1
1
1
1
1
1
1
1
1
1
1
1
1
1
1
1
1
1
1
1
1
1
1
1
1
1
1
1
1
1
1
1
1
1
1
1
1
1
1
1
1
1
1
1
1
1
1
1
1
1
1
1
1
1
1
1
1
1
1
1
1
1
1
1
1
1
1
1
1
1
1
1
1
1
1
1
1
1
1
1
1
1
1
1
1
1
1
1
1
1
1
1
1
1
1
1
1
1
1
1
1
1
1
1
1
1
1
1
1
1
1
1
1
1
1
1
1
1
1
1
1
1
1
1
1
1
1
1
1
1
1
1
1
1
1
1
1
1
1
1
1
1
1
1
1
1
1
1
1
1
1
1
1
1
1
1
1
1
1
1
1
1
1
1
1
1
1
1
1
1
1
1
1
1
1
1
1
1
1
1
1
1
1
1
1
1
1
1
1
1
1
1
1
1
1
1
1
1
1
1
1
1
1
1
1
1
1
1
1
1
1
1
1
1
1
1
1
1
1
1
1
1
1
1
1
1
1
1
1
1
1
1
1
1
1
1
1
1
1
1
1
1
1
1
1
1
1
1
1
1
1
1
1
1
1
1
1
1
1
1
1
1
1
1
1
1
1
1
1
1
1
1
1
1
1
1
1
1
1
1
1
1
1
1
1
1
1
1
1
1
1
1
1
1
1
1
1
1
1
1
1
1
1
1
1
1
1
1
1
1
1
1
1
1
1
1
1
1
1
1
1
1
1
1
1
1
1
1
1
1
1
1
1
1
1
1
1
1
1
1
1
1
1
1
1
1
1
1
1
1
1
1
1
1
1
1
1
1
1
1
1
1
1
1
1
1
1
1
1
1
1
1
1
1
1
1
1
1
1
1
1
1
1
1
1
1
1
1
1
1
1
1
1
1
1
1
1
1
1
1
1
1
1
1
1
1
1
1
1
1
1
1
1
1
1
1
1
1
1
1
1
1
1
1
1
1
1
1
1
1
1
1
1
1
1
1
1
1
1
1
1
1
1
1
1
1
1
1
1
1
1
1
1
1
1
1
1
1
1
1
1
1
1
1
1
1
1
1
1
1
1
1
1
1
1
1
1
1
1
1
1
1
1
1
1
1
1
1
1
1
1
1
1
1
1
1
1
1
1
1
1
1
1
1
1
1
1
1
1
1
1
1
1
1
1
1
1
1
1
1
1
1
1
1
1
1
1
1
1
1
1
1
1
1
1
1
1
1
1
1
1
1
1
1
1
1
1
1
1
1
1
1
1
1
1
1
1
1
1
1
1
1
1
1
1
1
1
1
1
1
1
1
1
1
1
1
1
1
1
1
1
1
1
1
1
1
1
1
1
1
1
1
1
1
1
1
1
1
1
1
1
1
1
1
1
1
1
1
1
1
1
1
1
1
1
1
1
1
1
1
1
1
1
1
1
1
1
1
1
1
1
1
1
1
1
1
1
1
1
1
1
1
1
1
1
1
1
1
1
1
1
1
1
1
1
1
1
1
1
1
1
1
1
1
1
1
1
1
1
1
1
1
1
1
1
1
1
1
1
1
1
1
1
1
1
1
1
1
1
1
1
1
1
1
1
1
1
1
1
1
1
1
1
1
1
1
1
1
1
1
1
1
1
1
1
1
1
1
1
1
1
1
1
1
1
1
1
1
1
1
1
1
1
1
1
1
1
1
1
1
1
1
1
1
1
1
1
1
1
1
1
1
1
1
1
1
1
1
1
1
1
1
1
1
1
1
1
1
1
1
1
1
1
1
1
1
1
1
1
1
1
1
1
1
1
1
1
1
1
1
1
1
1
1
1
1
1
1
1
1
1
1
1
1
1
1
1
1
1
1
1
1
1
1
1
1
1
1
1
1
1
1
1
1
1
1
1
1
1
1
1
1
1
1
1
1
1
1
1
1
1
1
1
1
1
1
1
1
1
1
1
1
1
1
1
1
1
1
1
1
1
1
1
1
1
1
1
1
1
1
1
1
1
1
1
1
1
1
1
1
1
1
1
1
1
1
1
1
1
1
1
1
1
1
1
1
1
1
1
1
1
1
1
1
1
1
1
1
1
1
1
1
1
1
1
1
1
1
1
1
1
1
1
1
1
1
1
1
1
1
1
1
1
1
1
1
1
1
1
1
1
1
1
1
1
1
1
1
1
1
1
1
1
1
1
1
1
1
1
1
1
1
1
1
1
1
1
1
1
1
1
1
1
1
1
1
1
1
1
1
1
1
1
1
1
1
1
1
1
1
1
1
1
1
1
1
1
1
1
1
1
1
1
1
1
1
1
1
1
1
1
1
1
1
1
1
1
1
1
1
1
1
1
1
1
1
1
1
1
1
1
1
1
1
1
1
1
1
1
1
1
1
1
1
1
1
1
1
1
1
1
1
1
1
1
1
1
1
1
1
1
1
1
1
1
1
1
1
1
1
1
1
1
1
1
1
1
1
1
1
1
1
1
1
1
1
1
1
1
1
1
1
1
1
1
1
1
1
1
1
1
1
1
1
1
1
1
1
1
1
1
1
1
1
1
1
1
1
1
1
1
1
1
1
1
1
1
1
1
1
1
1
1
1
1
1
1
1
1
1
1
1
1
1
1
1
1
1
1
1
1
1
1
1
1
1
1
1
1
1
1
1
1
1
1
1
1
1
1
1
1
1
1
1
1
1
1
1
1
1
1
1
1
1
1
1
1
1
1
1
1
1
1
1
1
1
1
1
1
1
1
1
1
1
1
1
1
1
1
1
1
1
1
1
1
1
1
1
1
1
1
1
1
1
1
1
1
1
1
1
1
1
1
1
1
1
1
1
1
1
1
1
1
1
1
1
1
1
1
1
1
1
1
1
1
1
1
1
1
1
1
1
1
1
1
1
1
1
1
1
1
1
1
1
1
1
1
1
1
1
1
1
1
1
1
1
1
1
1
1
1
1
1
1
1
1
1
1
1
1
1
1
1
1
1
1
1
1
1
1
1
1
1
1
1
1
1
1
1
1
1
1
1
1
1
1
1
1
1
1
1
1
1
1
1
1
1
1
1
1
1
1
1
1
1
1
1
1
1
1
1
1
1
1
1
1
1
1
1
1
1
1
1
1
1
1
1
1
1
1
1
1
1
1
1
1
1
1
1
1
1
1
1
1
1
1
1
1
1
1
1
1
1
1
1
1
1
1
1
1
1
1
1
1
1
1
1
1
1
1
1
1
1
1
1
1
1
1
1
1
1
1
1
1
1
1
1
1
1
1
1
1
1
1
1
1
1
1
1
1
1
1
1
1
1
1
1
1
1
1
1
1
1
1
1
1
1
1
1
1
1
1
1
1
1
1
1
1
1
1
1
1
1
1
1
1
1
1
1
1
1
1
1
1
1
1
1
1
1
1
1
1
1
1
1
1
1
1
1
1
1
1
1
1
1
1
1
1
1
1
1
1
1
1
1
1
1
1
1
1
1
1
1
1
1
1
1
1
1
1
1
1
1
1
1
1
1
1
1
1
1
1
1
1
1
1
1
1
1
1
1
1
1
1
1
1
1
1
1
1
1
1
1
1
1
1
1
1
1
1
1
1
1
1
1
1
1
1
1
1
1
1
1
1
1
1
1
1
1
1
1
1
1
1
1
1
1
1
1
1
1
1
1
1
1
1
1
1
1
1
1
1
1
1
1
1
1
1
1
1
1
1
1
1
1
1
1
1
1
1
1
1
1
1
1
1
1
1
1
1
1
1
1
1
1
1
1
1
1
1
1
1
1
1
1
1
1
1
1
1
1
1
1
1
1
1
1
1
1
1
1
1
1
1
1
1
1
1
1
1
1
1
1
1
1
1
1
1
1
1
1
1
1
1
1
1
1
1
1
1
1
1
1
1
1
1
1
1
1
1
1
1
1
1
1
1
1
1
1
1
1
1
1
1
1
1
1
1
1
1
1
1
1
1
1
1
1
1
1
1
1
1
1
1
1
1
1
1
1
1
1
1
1
1
1
1
1
1
1
1
1
1
1
1
1
1
1
1
1
1
1
1
1
1
1
1
1
1
1
1
1
1
1
1
1
1
1
1
1
1
1
1
1
1
1
1
1
1
1
1
1
1
1
1
1
1
1
1
1
1
1
1
1
1
1
1
1
1
1
1
1
1
1
1
1
1
1
1
1
1
1
1
1
1
1
1
1
1
1
1
1
1
1
1
1
1
1
1
1
1
1
1
1
1
1
1
1
1
1
1
1
1
1
1
1
1
1
1
1
1
1
1
1
1
1
1
1
1
1
1
1
1
1
1
1
1
1
1
1
1
1
1
1
1
1
1
1
1
1
1
1
1
1
1
1
1
1
1
1
1
1
1
1
1
1
1
1
1
1
1
1
1
1
1
1
1
1
1
1
1
1
1
1
1
1
1
1
1
1
1
1
1
1
1
1
1
1
1
1
1
1
1
1
1
1
1
1
1
1
1
1
1
1
1
1
1
1
1
1
1
1
1
1
1
1
1
1
1
1
1
1
1
1
1
1
1
1
1
1
1
1
1
1
1
1
1
1
1
1
1
1
1
1
1
1
1
1
1
1
1
1
1
1
1
1
1
1
1
1
1
1
1
1
1
1
1
1
1
1
1
1
1
1
1
1
1
1
1
1
1
1
1
1
1
1
1
1
1
1
1
1
1
1
1
1
1
1
1
1
1
1
1
1
1
1
1
1
1
1
1
1
1
1
1
1
1
1
1
1
1
1
1
1
1
1
1
1
1
1
1
1
1
1
1
1
1
1
1
1
1
1
1
1
1
1
1
1
1
1
1
1
1
1
1
1
1
1
1
1
1
1
1
1
1
1
1
1
1
1
1
1
1
1
1
1
1
1
1
1
1
1
1
1
1
1
1
1
1
1
1
1
1
1
1
1
1
1
1
1
1
1
1
1
1
1
1
1
1
1
1
1
1
1
1
1
1
1
1
1
1
1
1
1
1
1
1
1
1
1
1
1
1
1
1
1
1
1
1
1
1
1
1
1
1
1
1
1
1
1
1
1
1
1
1
1
1
1
1
1
1
1
1
1
1
1
1
1
1
1
1
1
1
1
1
1
1
1
1
1
1
1
1
1
1
1
1
1
1
1
1
1
1
1
1
1
1
1
1
1
1
1
1
1
1
1
1
1
1
1
1
1
1
1
1
1
1
1
1
1
1
1
1
1
1
1
1
1
1
1
1
1
1
1
1
1
1
1
1
1
1
1
1
1
1
1
1
1
1
1
1
1
1
1
1
1
1
1
1
1
1
1
1
1
1
1
1
1
1
1
1
1
1
1
1
1
1
1
1
1
1
1
1
1
1
1
1
1
1
1
1
1
1
1
1
1
1
1
1
1
1
1
1
1
1
1
1
1
1
1
1
1
1
1
1
1
1
1
1
1
1
1
1
1
1
1
1
1
1
1
1
1
1
1
1
1
1
1
1
1
1
1
1
1
1
1
1
1
1
1
1
1
1
1
1
1
1
1
1
1
1
1
1
1
1
1
1
1
1
1
1
1
1
1
1
1
1
1
1
1
1
1
1
1
1
1
1
1
1
1
1
1
1
1
1
1
1
1
1
1
1
1
1
1
1
1
1
1
1
1
1
1
1
1
1
1
1
1
1
1
1
1
1
1
1
1
1
1
1
1
1
1
1
1
1
1
1
1
1
1
1
1
1
1
1
1
1
1
1
1
1
1
1
1
1
1
1
1
1
1
1
1
1
1
1
1
1
1
1
1
1
1
1
1
1
1
1
1
1
1
1
1
1
1
1
1
1
1
1
1
1
1
1
1
1
1
1
1
1
1
1
1
1
1
1
1
1
1
1
1
1
1
1
1
1
1
1
1
1
1
1
1
1
1
1
1
1
1
1
1
1
1
1
1
1
1
1
1
1
1
1
1
1
1
1
1
1
1
1
1
1
1
1
1
1
1
1
1
1
1
1
1
1
1
1
1
1
1
1
1
1
1
1
1
1
1
1
1
1
1
1
1
1
1
1
1
1
1
1
1
1
1
1
1
1
1
1
1
1
1
1
1
1
1
1
1
1
1
1
1
1
1
1
1
1
1
1
1
1
1
1
1
1
1
1
1
1
1
1
1
1
1
1
1
1
1
1
1
1
1
1
1
1
1
1
1
1
1
1
1
1
1
1
1
1
1
1
1
1
1
1
1
1
1
1
1
1
1
1
1
1
1
1
1
1
1
1
1
1
1
1
1
1
1
1
1
1
1
1
1
1
1
1
1
1
1
1
1
1
1
1
1
1
1
1
1
1
1
1
1
1
1
1
1
1
1
1
1
1
1
1
1
1
VECTORS v double
-0.3187464 -0.3187464 -0.3187464
-0.67288262 -0.3187464 -0.3187464
-1.0199844 -0.3187464 -0.3187464
-1.3670875 -0.3187464 -0.3187464
-1.714192 -0.3187464 -0.3187464
-2.0612884 -0.3187464 -0.3187464
-2.4083982 -0.3187464 -0.3187464
-2.7554946 -0.3187464 -0.3187464
-3.1026045 -0.3187464 -0.3187464
-3.4497008 -0.3187464 -0.3187464
-3.7968107 -0.3187464 -0.3187464
-4.1439071 -0.3187464 -0.3187464
-4.4910169 -0.3187464 -0.3187464
-4.8381133 -0.3187464 -0.3187464
-5.1852232 -0.3187464 -0.3187464
-5.5323196 -0.3187464 -0.3187464
-5.8794294 -0.3187464 -0.3187464
-6.2265258 -0.3187464 -0.3187464
-6.5736357 -0.3187464 -0.3187464
-6.9277651 -0.3187464 -0.3187464
-0.3187464 -0.67288262 -0.3187464
-0.67288262 -0.67288262 -0.3187464
-1.0199844 -0.67288262 -0.3187464
-1.3670875 -0.67288262 -0.3187464
-1.714192 -0.67288262 -0.3187464
-2.0612884 -0.67288262 -0.3187464
-2.4083982 -0.67288262 -0.3187464
-2.7554946 -0.67288262 -0.3187464
-3.1026045 -0.67288262 -0.3187464
-3.4497008 -0.67288262 -0.3187464
-3.7968107 -0.67288262 -0.3187464
-4.1439071 -0.67288262 -0.3187464
-4.4910169 -0.67288262 -0.3187464
-4.8381133 -0.67288262 -0.3187464
-5.1852232 -0.67288262 -0.3187464
-5.5323196 -0.67288262 -0.3187464
-5.8794294 -0.67288262 -0.3187464
-6.2265258 -0.67288262 -0.3187464
-6.5736357 -0.67288262 -0.3187464
-6.9277651 -0.67288262 -0.3187464
-0.3187464 -1.0199844 -0.3187464
-0.67288262 -1.0199844 -0.3187464
-1.0199844 -1.0199844 -0.3187464
-1.3670875 -1.0199844 -0.3187464
-1.714192 -1.0199844 -0.3187464
-2.0612884 -1.0199844 -0.3187464
-2.4083982 -1.0199844 -0.3187464
-2.7554946 -1.0199844 -0.3187464
-3.1026045 -1.0199844 -0.3187464
-3.4497008 -1.0199844 -0.3187464
-3.7968107 -1.0199844 -0.3187464
-4.1439071 -1.0199844 -0.3187464
-4.4910169 -1.0199844 -0.3187464
-4.8381133 -1.0199844 -0.3187464
-5.1852232 -1.0199844 -0.3187464
-5.5323196 -1.0199844 -0.3187464
-5.8794294 -1.0199844 -0.3187464
-6.2265258 -1.0199844 -0.3187464
-6.5736357 -1.0199844 -0.3187464
-6.9277651 -1.0199844 -0.3187464
-0.3187464 -1.3670875 -0.3187464
-0.67288262 -1.3670875 -0.3187464
-1.0199844 -1.3670875 -0.3187464
-1.3670875 -1.3670875 -0.3187464
-1.714192 -1.3670875 -0.3187464
-2.0612884 -1.3670875 -0.3187464
-2.4083982 -1.3670875 -0.3187464
-2.7554946 -1.3670875 -0.3187464
-3.1026045 -1.3670875 -0.3187464
-3.4497008 -1.3670875 -0.3187464
-3.7968107 -1.3670875 -0.3187464
-4.1439071 -1.3670875 -0.3187464
-4.4910169 -1.3670875 -0.3187464
-4.8381133 -1.3670875 -0.3187464
-5.1852232 -1.3670875 -0.3187464
-5.5323196 -1.3670875 -0.3187464
-5.8794294 -1.3670875 -0.3187464
-6.2265258 -1.3670875 -0.3187464
-6.5736357 -1.3670875 -0.3187464
-6.9277651 -1.3670875 -0.3187464
-0.3187464 -1.714192 -0.3187464
-0.67288262 -1.714192 -0.3187464
-1.0199844 -1.714192 -0.3187464
-1.3670875 -1.714192 -0.3187464
-1.714192 -1.714192 -0.3187464
-2.0612884 -1.714192 -0.3187464
-2.4083982 -1.714192 -0.3187464
-2.7554946 -1.714192 -0.3187464
-3.1026045 -1.714192 -0.3187464
-3.4497008 -1.714192 -0.3187464
-3.7968107 -1.714192 -0.3187464
-4.1439071 -1.714192 -0.3187464
-4.4910169 -1.714192 -0.3187464
-4.8381133 -1.714192 -0.3187464
-5.1852232 -1.714192 -0.3187464
-5.5323196 -1.714192 -0.3187464
-5.8794294 -1.714192 -0.3187464
-6.2265258 -1.714192 -0.3187464
-6.5736357 -1.714192 -0.3187464
-6.9277651 -1.714192 -0.3187464
-0.3187464 -2.0612884 -0.3187464
-0.67288262 -2.0612884 -0.3187464
-1.0199844 -2.0612884 -0.3187464
-1.3670875 -2.0612884 -0.3187464
-1.714192 -2.0612884 -0.3187464
-2.0612884 -2.0612884 -0.3187464
-2.4083982 -2.0612884 -0.3187464
-2.7554946 -2.0612884 -0.3187464
-3.1026045 -2.0612884 -0.3187464
-3.4497008 -2.0612884 -0.3187464
-3.7968107 -2.0612884 -0.3187464
-4.1439071 -2.0612884 -0.3187464
-4.4910169 -2.0612884 -0.3187464
-4.8381133 -2.0612884 -0.3187464
-5.1852232 -2.0612884 -0.3187464
-5.5323196 -2.0612884 -0.3187464
-5.8794294 -2.0612884 -0.3187464
-6.2265258 -2.0612884 -0.3187464
-6.5736357 -2.0612884 -0.3187464
-6.9277651 -2.0612884 -0.3187464
-0.3187464 -2.4083982 -0.3187464
-0.67288262 -2.4083982 -0.3187464
-1.0199844 -2.4083982 -0.3187464
-1.3670875 -2.4083982 -0.3187464
-1.714192 -2.4083982 -0.3187464
-2.0612884 -2.4083982 -0.3187464
-2.4083982 -2.4083982 -0.3187464
-2.7554946 -2.4083982 -0.3187464
-3.1026045 -2.4083982 -0.3187464
-3.4497008 -2.4083982 -0.3187464
-3.7968107 -2.4083982 -0.3187464
-4.1439071 -2.4083982 -0.3187464
-4.4910169 -2.4083982 -0.3187464
-4.8381133 -2.4083982 -0.3187464
-5.1852232 -2.4083982 -0.3187464
-5.5323196 -2.4083982 -0.3187464
-5.8794294 -2.4083982 -0.3187464
-6.2265258 -2.4083982 -0.3187464
-6.5736357 -2.4083982 -0.3187464
-6.9277651 -2.4083982 -0.3187464
-0.3187464 -2.7554946 -0.3187464
-0.67288262 -2.7554946 -0.3187464
-1.0199844 -2.7554946 -0.3187464
-1.3670875 -2.7554946 -0.3187464
-1.714192 -2.7554946 -0.3187464
-2.0612884 -2.7554946 -0.3187464
-2.4083982 -2.7554946 -0.3187464
-2.7554946 -2.7554946 -0.3187464
-3.1026045 -2.7554946 -0.3187464
-3.4497008 -2.7554946 -0.3187464
-3.7968107 -2.7554946 -0.3187464
-4.1439071 -2.7554946 -0.3187464
-4.4910169 -2.7554946 -0.3187464
-4.8381133 -2.7554946 -0.3187464
-5.1852232 -2.7554946 -0.3187464
-5.5323196 -2.7554946 -0.3187464
-5.8794294 -2.7554946 -0.3187464
-6.2265258 -2.7554946 -0.3187464
-6.5736357 -2.7554946 -0.3187464
-6.9277651 -2.7554946 -0.3187464
-0.3187464 -3.1026045 -0.3187464
-0.67288262 -3.1026045 -0.3187464
-1.0199844 -3.1026045 -0.3187464
-1.3670875 -3.1026045 -0.3187464
-1.714192 -3.1026045 -0.3187464
-2.0612884 -3.1026045 -0.3187464
-2.4083982 -3.1026045 -0.3187464
-2.7554946 -3.1026045 -0.3187464
-3.1026045 -3.1026045 -0.3187464
-3.4497008 -3.1026045 -0.3187464
-3.7968107 -3.1026045 -0.3187464
-4.1439071 -3.1026045 -0.3187464
-4.4910169 -3.1026045 -0.3187464
-4.8381133 -3.1026045 -0.3187464
-5.1852232 -3.1026045 -0.3187464
-5.5323196 -3.1026045 -0.3187464
-5.8794294 -3.1026045 -0.3187464
-6.2265258 -3.1026045 -0.3187464
-6.5736357 -3.1026045 -0.3187464
-6.9277651 -3.1026045 -0.3187464
-0.3187464 -3.4497008 -0.3187464
-0.67288262 -3.4497008 -0.3187464
-1.0199844 -3.4497008 -0.3187464
-1.3670875 -3.4497008 -0.3187464
-1.714192 -3.4497008 -0.3187464
-2.0612884 -3.4497008 -0.3187464
-2.4083982 -3.4497008 -0.3187464
-2.7554946 -3.4497008 -0.3187464
-3.1026045 -3.4497008 -0.3187464
-3.4497008 -3.4497008 -0.3187464
-3.7968107 -3.4497008 -0.3187464
-4.1439071 -3.4497008 -0.3187464
-4.4910169 -3.4497008 -0.3187464
-4.8381133 -3.4497008 -0.3187464
-5.1852232 -3.4497008 -0.3187464
-5.5323196 -3.4497008 -0.3187464
-5.8794294 -3.4497008 -0.3187464
-6.2265258 -3.4497008 -0.3187464
-6.5736357 -3.4497008 -0.3187464
-6.9277651 -3.4497008 -0.3187464
-0.3187464 -3.7968107 -0.3187464
-0.67288262 -3.7968107 -0.3187464
-1.0199844 -3.7968107 -0.3187464
-1.3670875 -3.7968107 -0.3187464
-1.714192 -3.7968107 -0.3187464
-2.0612884 -3.7968107 -0.3187464
-2.4083982 -3.7968107 -0.3187464
-2.7554946 -3.7968107 -0.3187464
-3.1026045 -3.7968107 -0.3187464
-3.4497008 -3.7968107 -0.3187464
-3.7968107 -3.7968107 -0.3187464
-4.1439071 -3.7968107 -0.3187464
-4.4910169 -3.7968107 -0.3187464
-4.8381133 -3.7968107 -0.3187464
-5.1852232 -3.7968107 -0.3187464
-5.5323196 -3.7968107 -0.3187464
-5.8794294 -3.7968107 -0.3187464
-6.2265258 -3.7968107 -0.3187464
-6.5736357 -3.7968107 -0.3187464
-6.9277651 -3.7968107 -0.3187464
-0.3187464 -4.1439071 -0.3187464
-0.67288262 -4.1439071 -0.3187464
-1.0199844 -4.1439071 -0.3187464
-1.3670875 -4.1439071 -0.3187464
-1.714192 -4.1439071 -0.3187464
-2.0612884 -4.1439071 -0.3187464
-2.4083982 -4.1439071 -0.3187464
-2.7554946 -4.1439071 -0.3187464
-3.1026045 -4.1439071 -0.3187464
-3.4497008 -4.1439071 -0.3187464
-3.7968107 -4.1439071 -0.3187464
-4.1439071 -4.1439071 -0.3187464
-4.4910169 -4.1439071 -0.3187464
-4.8381133 -4.1439071 -0.3187464
-5.1852232 -4.1439071 -0.3187464
-5.5323196 -4.1439071 -0.3187464
-5.8794294 -4.1439071 -0.3187464
-6.2265258 -4.1439071 -0.3187464
-6.5736357 -4.1439071 -0.3187464
-6.9277651 -4.1439071 -0.3187464
-0.3187464 -4.4910169 -0.3187464
-0.67288262 -4.4910169 -0.3187464
-1.0199844 -4.4910169 -0.3187464
-1.3670875 -4.4910169 -0.3187464
-1.714192 -4.4910169 -0.3187464
-2.0612884 -4.4910169 -0.3187464
-2.4083982 -4.4910169 -0.3187464
-2.7554946 -4.4910169 -0.3187464
-3.1026045 -4.4910169 -0.3187464
-3.4497008 -4.4910169 -0.3187464
-3.7968107 -4.4910169 -0.3187464
-4.1439071 -4.4910169 -0.3187464
-4.4910169 -4.4910169 -0.3187464
-4.8381133 -4.4910169 -0.3187464
-5.1852232 -4.4910169 -0.3187464
-5.5323196 -4.4910169 -0.3187464
-5.8794294 -4.4910169 -0.3187464
-6.2265258 -4.4910169 -0.3187464
-6.5736357 -4.4910169 -0.3187464
-6.9277651 -4.4910169 -0.3187464
-0.3187464 -4.8381133 -0.3187464
-0.67288262 -4.8381133 -0.3187464
-1.0199844 -4.8381133 -0.3187464
-1.3670875 -4.8381133 -0.3187464
-1.714192 -4.8381133 -0.3187464
-2.0612884 -4.8381133 -0.3187464
-2.4083982 -4.8381133 -0.3187464
-2.7554946 -4.8381133 -0.3187464
-3.1026045 -4.8381133 -0.3187464
-3.4497008 -4.8381133 -0.3187464
-3.7968107 -4.8381133 -0.3187464
-4.1439071 -4.8381133 -0.3187464
-4.4910169 -4.8381133 -0.3187464
-4.8381133 -4.8381133 -0.3187464
-5.1852232 -4.8381133 -0.3187464
-5.5323196 -4.8381133 -0.3187464
-5.8794294 -4.8381133 -0.3187464
-6.2265258 -4.8381133 -0.3187464
-6.5736357 -4.8381133 -0.3187464
-6.9277651 -4.8381133 -0.3187464
-0.3187464 -5.1852232 -0.3187464
-0.67288262 -5.1852232 -0.3187464
-1.0199844 -5.1852232 -0.3187464
-1.3670875 -5.1852232 -0.3187464
-1.714192 -5.1852232 -0.3187464
-2.0612884 -5.1852232 -0.3187464
-2.4083982 -5.1852232 -0.3187464
-2.7554946 -5.1852232 -0.3187464
-3.1026045 -5.1852232 -0.3187464
-3.4497008 -5.1852232 -0.3187464
-3.7968107 -5.1852232 -0.3187464
-4.1439071 -5.1852232 -0.3187464
-4.4910169 -5.1852232 -0.3187464
-4.8381133 -5.1852232 -0.3187464
-5.1852232 -5.1852232 -0.3187464
-5.5323196 -5.1852232 -0.3187464
-5.8794294 -5.1852232 -0.3187464
-6.2265258 -5.1852232 -0.3187464
-6.5736357 -5.1852232 -0.3187464
-6.9277651 -5.1852232 -0.3187464
-0.3187464 -5.5323196 -0.3187464
-0.67288262 -5.5323196 -0.3187464
-1.0199844 -5.5323196 -0.3187464
-1.3670875 -5.5323196 -0.3187464
-1.714192 -5.5323196 -0.3187464
-2.0612884 -5.5323196 -0.3187464
-2.4083982 -5.5323196 -0.3187464
-2.7554946 -5.5323196 -0.3187464
-3.1026045 -5.5323196 -0.3187464
-3.4497008 -5.5323196 -0.3187464
-3.7968107 -5.5323196 -0.3187464
-4.1439071 -5.5323196 -0.3187464
-4.4910169 -5.5323196 -0.3187464
-4.8381133 -5.5323196 -0.3187464
-5.1852232 -5.5323196 -0.3187464
-5.5323196 -5.5323196 -0.3187464
-5.8794294 -5.5323196 -0.3187464
-6.2265258 -5.5323196 -0.3187464
-6.5736357 -5.5323196 -0.3187464
-6.9277651 -5.5323196 -0.3187464
-0.3187464 -5.8794294 -0.3187464
-0.67288262 -5.8794294 -0.3187464
-1.0199844 -5.8794294 -0.3187464
-1.3670875 -5.8794294 -0.3187464
-1.714192 -5.8794294 -0.3187464
-2.0612884 -5.8794294 -0.3187464
-2.4083982 -5.8794294 -0.3187464
-2.7554946 -5.8794294 -0.3187464
-3.1026045 -5.8794294 -0.3187464
-3.4497008 -5.8794294 -0.3187464
-3.7968107 -5.8794294 -0.3187464
-4.1439071 -5.8794294 -0.3187464
-4.4910169 -5.8794294 -0.3187464
-4.8381133 -5.8794294 -0.3187464
-5.1852232 -5.8794294 -0.3187464
-5.5323196 -5.8794294 -0.3187464
-5.8794294 -5.8794294 -0.3187464
-6.2265258 -5.8794294 -0.3187464
-6.5736357 -5.8794294 -0.3187464
-6.9277651 -5.8794294 -0.3187464
-0.3187464 -6.2265258 -0.3187464
-0.67288262 -6.2265258 -0.3187464
-1.0199844 -6.2265258 -0.3187464
-1.3670875 -6.2265258 -0.3187464
-1.714192 -6.2265258 -0.3187464
-2.0612884 -6.2265258 -0.3187464
-2.4083982 -6.2265258 -0.3187464
-2.7554946 -6.2265258 -0.3187464
-3.1026045 -6.2265258 -0.3187464
-3.4497008 -6.2265258 -0.3187464
-3.7968107 -6.2265258 -0.3187464
-4.1439071 -6.2265258 -0.3187464
-4.4910169 -6.2265258 -0.3187464
-4.8381133 -6.2265258 -0.3187464
-5.1852232 -6.2265258 -0.3187464
-5.5323196 -6.2265258 -0.3187464
-5.8794294 -6.2265258 -0.3187464
-6.2265258 -6.2265258 -0.3187464
-6.5736357 -6.2265258 -0.3187464
-6.9277651 -6.2265258 -0.3187464
-0.3187464 -6.5736357 -0.3187464
-0.67288262 -6.5736357 -0.3187464
-1.0199844 -6.5736357 -0.3187464
-1.3670875 -6.5736357 -0.3187464
-1.714192 -6.5736357 -0.3187464
-2.0612884 -6.5736357 -0.3187464
-2.4083982 -6.5736357 -0.3187464
-2.7554946 -6.5736357 -0.3187464
-3.1026045 -6.5736357 -0.3187464
-3.4497008 -6.5736357 -0.3187464
-3.7968107 -6.5736357 -0.3187464
-4.1439071 -6.5736357 -0.3187464
-4.4910169 -6.5736357 -0.3187464
-4.8381133 -6.5736357 -0.3187464
-5.1852232 -6.5736357 -0.3187464
-5.5323196 -6.5736357 -0.3187464
-5.8794294 -6.5736357 -0.3187464
-6.2265258 -6.5736357 -0.3187464
-6.5736357 -6.5736357 -0.3187464
-6.9277651 -6.5736357 -0.3187464
-0.3187464 -6.9277651 -0.3187464
-0.67288262 -6.9277651 -0.3187464
-1.0199844 -6.9277651 -0.3187464
-1.3670875 -6.9277651 -0.3187464
-1.714192 -6.9277651 -0.3187464
-2.0612884 -6.9277651 -0.3187464
-2.4083982 -6.9277651 -0.3187464
-2.7554946 -6.9277651 -0.3187464
-3.1026045 -6.9277651 -0.3187464
-3.4497008 -6.9277651 -0.3187464
-3.7968107 -6.9277651 -0.3187464
-4.1439071 -6.9277651 -0.3187464
-4.4910169 -6.9277651 -0.3187464
-4.8381133 -6.9277651 -0.3187464
-5.1852232 -6.9277651 -0.3187464
-5.5323196 -6.9277651 -0.3187464
-5.8794294 -6.9277651 -0.3187464
-6.2265258 -6.9277651 -0.3187464
-6.5736357 -6.9277651 -0.3187464
-6.9277651 -6.9277651 -0.3187464
-0.3187464 -0.3187464 -0.67288262
-0.67288262 -0.3187464 -0.67288262
-1.0199844 -0.3187464 -0.67288262
-1.3670875 -0.3187464 -0.67288262
-1.714192 -0.3187464 -0.67288262
-2.0612884 -0.3187464 -0.67288262
-2.4083982 -0.3187464 -0.67288262
-2.7554946 -0.3187464 -0.67288262
-3.1026045 -0.3187464 -0.67288262
-3.4497008 -0.3187464 -0.67288262
-3.7968107 -0.3187464 -0.67288262
-4.1439071 -0.3187464 -0.67288262
-4.4910169 -0.3187464 -0.67288262
-4.8381133 -0.3187464 -0.67288262
-5.1852232 -0.3187464 -0.67288262
-5.5323196 -0.3187464 -0.67288262
-5.8794294 -0.3187464 -0.67288262
-6.2265258 -0.3187464 -0.67288262
-6.5736357 -0.3187464 -0.67288262
-6.9277651 -0.3187464 -0.67288262
-0.3187464 -0.67288262 -0.67288262