# vtk DataFile Version 4.0
hesp visualization file
ASCII
DATASET UNSTRUCTURED_GRID
POINTS 3000 double
0.28765444 0.28765444 0.28765444
2.6342444 0.28765444 0.28765444
4.9837861 0.28765444 0.28765444
7.3333369 0.28765444 0.28765444
9.6828968 0.28765444 0.28765444
12.032402 0.28765444 0.28765444
14.381998 0.28765444 0.28765444
16.731504 0.28765444 0.28765444
19.0811 0.28765444 0.28765444
21.430605 0.28765444 0.28765444
23.780202 0.28765444 0.28765444
26.129707 0.28765444 0.28765444
28.479303 0.28765444 0.28765444
30.828809 0.28765444 0.28765444
33.178405 0.28765444 0.28765444
35.52791 0.28765444 0.28765444
37.877507 0.28765444 0.28765444
40.227012 0.28765444 0.28765444
42.576608 0.28765444 0.28765444
44.923153 0.28765444 0.28765444
0.28765444 2.6342444 0.28765444
2.6342444 2.6342444 0.28765444
4.9837861 2.6342444 0.28765444
7.3333369 2.6342444 0.28765444
9.6828968 2.6342444 0.28765444
12.032402 2.6342444 0.28765444
14.381998 2.6342444 0.28765444
16.731504 2.6342444 0.28765444
19.0811 2.6342444 0.28765444
21.430605 2.6342444 0.28765444
23.780202 2.6342444 0.28765444
26.129707 2.6342444 0.28765444
28.479303 2.6342444 0.28765444
30.828809 2.6342444 0.28765444
33.178405 2.6342444 0.28765444
35.52791 2.6342444 0.28765444
37.877507 2.6342444 0.28765444
40.227012 2.6342444 0.28765444
42.576608 2.6342444 0.28765444
44.923153 2.6342444 0.28765444
0.28765444 4.9837861 0.28765444
2.6342444 4.9837861 0.28765444
4.9837861 4.9837861 0.28765444
7.3333369 4.9837861 0.28765444
9.6828968 4.9837861 0.28765444
12.032402 4.9837861 0.28765444
14.381998 4.9837861 0.28765444
16.731504 4.9837861 0.28765444
19.0811 4.9837861 0.28765444
21.430605 4.9837861 0.28765444
23.780202 4.9837861 0.28765444
26.129707 4.9837861 0.28765444
28.479303 4.9837861 0.28765444
30.828809 4.9837861 0.28765444
33.178405 4.9837861 0.28765444
35.52791 4.9837861 0.28765444
37.877507 4.9837861 0.28765444
40.227012 4.9837861 0.28765444
42.576608 4.9837861 0.28765444
44.923153 4.9837861 0.28765444
0.28765444 7.3333369 0.28765444
2.6342444 7.3333369 0.28765444
4.9837861 7.3333369 0.28765444
7.3333369 7.3333369 0.28765444
9.6828968 7.3333369 0.28765444
12.032402 7.3333369 0.28765444
14.381998 7.3333369 0.28765444
16.731504 7.3333369 0.28765444
19.0811 7.3333369 0.28765444
21.430605 7.3333369 0.28765444
23.780202 7.3333369 0.28765444
26.129707 7.3333369 0.28765444
28.479303 7.3333369 0.28765444
30.828809 7.3333369 0.28765444
33.178405 7.3333369 0.28765444
35.52791 7.3333369 0.28765444
37.877507 7.3333369 0.28765444
40.227012 7.3333369 0.28765444
42.576608 7.3333369 0.28765444
44.923153 7.3333369 0.28765444
0.28765444 9.6828968 0.28765444
2.6342444 9.6828968 0.28765444
4.9837861 9.6828968 0.28765444
7.3333369 9.6828968 0.28765444
9.6828968 9.6828968 0.28765444
12.032402 9.6828968 0.28765444
14.381998 9.6828968 0.28765444
16.731504 9.6828968 0.28765444
19.0811 9.6828968 0.28765444
21.430605 9.6828968 0.28765444
23.780202 9.6828968 0.28765444
26.129707 9.6828968 0.28765444
28.479303 9.6828968 0.28765444
30.828809 9.6828968 0.28765444
33.178405 9.6828968 0.28765444
35.52791 9.6828968 0.28765444
37.877507 9.6828968 0.28765444
40.227012 9.6828968 0.28765444
42.576608 9.6828968 0.28765444
44.923153 9.6828968 0.28765444
0.28765444 12.032402 0.28765444
2.6342444 12.032402 0.28765444
4.9837861 12.032402 0.28765444
7.3333369 12.032402 0.28765444
9.6828968 12.032402 0.28765444
12.032402 12.032402 0.28765444
14.381998 12.032402 0.28765444
16.731504 12.032402 0.28765444
19.0811 12.032402 0.28765444
21.430605 12.032402 0.28765444
23.780202 12.032402 0.28765444
26.129707 12.032402 0.28765444
28.479303 12.032402 0.28765444
30.828809 12.032402 0.28765444
33.178405 12.032402 0.28765444
35.52791 12.032402 0.28765444
37.877507 12.032402 0.28765444
40.227012 12.032402 0.28765444
42.576608 12.032402 0.28765444
44.923153 12.032402 0.28765444
0.28765444 14.381998 0.28765444
2.6342444 14.381998 0.28765444
4.9837861 14.381998 0.28765444
7.3333369 14.381998 0.28765444
9.6828968 14.381998 0.28765444
12.032402 14.381998 0.28765444
14.381998 14.381998 0.28765444
16.731504 14.381998 0.28765444
19.0811 14.381998 0.28765444
21.430605 14.381998 0.28765444
23.780202 14.381998 0.28765444
26.129707 14.381998 0.28765444
28.479303 14.381998 0.28765444
30.828809 14.381998 0.28765444
33.178405 14.381998 0.28765444
35.52791 14.381998 0.28765444
37.877507 14.381998 0.28765444
40.227012 14.381998 0.28765444
42.576608 14.381998 0.28765444
44.923153 14.381998 0.28765444
0.28765444 16.731504 0.28765444
2.6342444 16.731504 0.28765444
4.9837861 16.731504 0.28765444
7.3333369 16.731504 0.28765444
9.6828968 16.731504 0.28765444
12.032402 16.731504 0.28765444
14.381998 16.731504 0.28765444
16.731504 16.731504 0.28765444
19.0811 16.731504 0.28765444
21.430605 16.731504 0.28765444
23.780202 16.731504 0.28765444
26.129707 16.731504 0.28765444
28.479303 16.731504 0.28765444
30.828809 16.731504 0.28765444
33.178405 16.731504 0.28765444
35.52791 16.731504 0.28765444
37.877507 16.731504 0.28765444
40.227012 16.731504 0.28765444
42.576608 16.731504 0.28765444
44.923153 16.731504 0.28765444
0.28765444 19.0811 0.28765444
2.6342444 19.0811 0.28765444
4.9837861 19.0811 0.28765444
7.3333369 19.0811 0.28765444
9.6828968 19.0811 0.28765444
12.032402 19.0811 0.28765444
14.381998 19.0811 0.28765444
16.731504 19.0811 0.28765444
19.0811 19.0811 0.28765444
21.430605 19.0811 0.28765444
23.780202 19.0811 0.28765444
26.129707 19.0811 0.28765444
28.479303 19.0811 0.28765444
30.828809 19.0811 0.28765444
33.178405 19.0811 0.28765444
35.52791 19.0811 0.28765444
37.877507 19.0811 0.28765444
40.227012 19.0811 0.28765444
42.576608 19.0811 0.28765444
44.923153 19.0811 0.28765444
0.28765444 21.430605 0.28765444
2.6342444 21.430605 0.28765444
4.9837861 21.430605 0.28765444
7.3333369 21.430605 0.28765444
9.6828968 21.430605 0.28765444
12.032402 21.430605 0.28765444
14.381998 21.430605 0.28765444
16.731504 21.430605 0.28765444
19.0811 21.430605 0.28765444
21.430605 21.430605 0.28765444
23.780202 21.430605 0.28765444
26.129707 21.430605 0.28765444
28.479303 21.430605 0.28765444
30.828809 21.430605 0.28765444
33.178405 21.430605 0.28765444
35.52791 21.430605 0.28765444
37.877507 21.430605 0.28765444
40.227012 21.430605 0.28765444
42.576608 21.430605 0.28765444
44.923153 21.430605 0.28765444
0.28765444 23.780202 0.28765444
2.6342444 23.780202 0.28765444
4.9837861 23.780202 0.28765444
7.3333369 23.780202 0.28765444
9.6828968 23.780202 0.28765444
12.032402 23.780202 0.28765444
14.381998 23.780202 0.28765444
16.731504 23.780202 0.28765444
19.0811 23.780202 0.28765444
21.430605 23.780202 0.28765444
23.780202 23.780202 0.28765444
26.129707 23.780202 0.28765444
28.479303 23.780202 0.28765444
30.828809 23.780202 0.28765444
33.178405 23.780202 0.28765444
35.52791 23.780202 0.28765444
37.877507 23.780202 0.28765444
40.227012 23.780202 0.28765444
42.576608 23.780202 0.28765444
44.923153 23.780202 0.28765444
0.28765444 26.129707 0.28765444
2.6342444 26.129707 0.28765444
4.9837861 26.129707 0.28765444
7.3333369 26.129707 0.28765444
9.6828968 26.129707 0.28765444
12.032402 26.129707 0.28765444
14.381998 26.129707 0.28765444
16.731504 26.129707 0.28765444
19.0811 26.129707 0.28765444
21.430605 26.129707 0.28765444
23.780202 26.129707 0.28765444
26.129707 26.129707 0.28765444
28.479303 26.129707 0.28765444
30.828809 26.129707 0.28765444
33.178405 26.129707 0.28765444
35.52791 26.129707 0.28765444
37.877507 26.129707 0.28765444
40.227012 26.129707 0.28765444
42.576608 26.129707 0.28765444
44.923153 26.129707 0.28765444
0.28765444 28.479303 0.28765444
2.6342444 28.479303 0.28765444
4.9837861 28.479303 0.28765444
7.3333369 28.479303 0.28765444
9.6828968 28.479303 0.28765444
12.032402 28.479303 0.28765444
14.381998 28.479303 0.28765444
16.731504 28.479303 0.28765444
19.0811 28.479303 0.28765444
21.430605 28.479303 0.28765444
23.780202 28.479303 0.28765444
26.129707 28.479303 0.28765444
28.479303 28.479303 0.28765444
30.828809 28.479303 0.28765444
33.178405 28.479303 0.28765444
35.52791 28.479303 0.28765444
37.877507 28.479303 0.28765444
40.227012 28.479303 0.28765444
42.576608 28.479303 0.28765444
44.923153 28.479303 0.28765444
0.28765444 30.828809 0.28765444
2.6342444 30.828809 0.28765444
4.9837861 30.828809 0.28765444
7.3333369 30.828809 0.28765444
9.6828968 30.828809 0.28765444
12.032402 30.828809 0.28765444
14.381998 30.828809 0.28765444
16.731504 30.828809 0.28765444
19.0811 30.828809 0.28765444
21.430605 30.828809 0.28765444
23.780202 30.828809 0.28765444
26.129707 30.828809 0.28765444
28.479303 30.828809 0.28765444
30.828809 30.828809 0.28765444
33.178405 30.828809 0.28765444
35.52791 30.828809 0.28765444
37.877507 30.828809 0.28765444
40.227012 30.828809 0.28765444
42.576608 30.828809 0.28765444
44.923153 30.828809 0.28765444
0.28765444 33.178405 0.28765444
2.6342444 33.178405 0.28765444
4.9837861 33.178405 0.28765444
7.3333369 33.178405 0.28765444
9.6828968 33.178405 0.28765444
12.032402 33.178405 0.28765444
14.381998 33.178405 0.28765444
16.731504 33.178405 0.28765444
19.0811 33.178405 0.28765444
21.430605 33.178405 0.28765444
23.780202 33.178405 0.28765444
26.129707 33.178405 0.28765444
28.479303 33.178405 0.28765444
30.828809 33.178405 0.28765444
33.178405 33.178405 0.28765444
35.52791 33.178405 0.28765444
37.877507 33.178405 0.28765444
40.227012 33.178405 0.28765444
42.576608 33.178405 0.28765444
44.923153 33.178405 0.28765444
0.28765444 35.52791 0.28765444
2.6342444 35.52791 0.28765444
4.9837861 35.52791 0.28765444
7.3333369 35.52791 0.28765444
9.6828968 35.52791 0.28765444
12.032402 35.52791 0.28765444
14.381998 35.52791 0.28765444
16.731504 35.52791 0.28765444
19.0811 35.52791 0.28765444
21.430605 35.52791 0.28765444
23.780202 35.52791 0.28765444
26.129707 35.52791 0.28765444
28.479303 35.52791 0.28765444
30.828809 35.52791 0.28765444
33.178405 35.52791 0.28765444
35.52791 35.52791 0.28765444
37.877507 35.52791 0.28765444
40.227012 35.52791 0.28765444
42.576608 35.52791 0.28765444
44.923153 35.52791 0.28765444
0.28765444 37.877507 0.28765444
[...]
POINT_DATA 3000
SCALARS m double
LOOKUP_TABLE default
1
1
1
1
1
1
1
1
1
1
1
1
1
1
1
1
1
1
1
1
1
1
1
1
1
1
1
1
1
1
1
1
1
1
1
1
1
1
1
1
1
1
1
1
1
1
1
1
1
1
1
1
1
1
1
1
1
1
1
1
1
1
1
1
1
1
1
1
1
1
1
1
1
1
1
1
1
1
1
1
1
1
1
1
1
1
1
1
1
1
1
1
1
1
1
1
1
1
1
1
1
1
1
1
1
1
1
1
1
1
1
1
1
1
1
1
1
1
1
1
1
1
1
1
1
1
1
1
1
1
1
1
1
1
1
1
1
1
1
1
1
1
1
1
1
1
1
1
1
1
1
1
1
1
1
1
1
1
1
1
1
1
1
1
1
1
1
1
1
1
1
1
1
1
1
1
1
1
1
1
1
1
1
1
1
1
1
1
1
1
1
1
1
1
1
1
1
1
1
1
1
1
1
1
1
1
1
1
1
1
1
1
1
1
1
1
1
1
1
1
1
1
1
1
1
1
1
1
1
1
1
1
1
1
1
1
1
1
1
1
1
1
1
1
1
1
1
1
1
1
1
1
1
1
1
1
1
1
1
1
1
1
1
1
1
1
1
1
1
1
1
1
1
1
1
1
1
1
1
1
1
1
1
1
1
1
1
1
1
1
1
1
1
1
1
1
1
1
1
1
1
1
1
1
1
1
1
1
1
1
1
1
1
1
1
1
1
1
1
1
1
1
1
1
1
1
1
1
1
1
1
1
1
1
1
1
1
1
1
1
1
1
1
1
1
1
1
1
1
1
1
1
1
1
1
1
1
1
1
1
1
1
1
1
1
1
1
1
1
1
1
1
1
1
1
1
1
1
1
1
1
1
1
1
1
1
1
1
1
1
1
1
1
1
1
1
1
1
1
1
1
1
1
1
1
1
1
1
1
1
1
1
1
1
1
1
1
1
1
1
1
1
1
1
1
1
1
1
1
1
1
1
1
1
1
1
1
1
1
1
1
1
1
1
1
1
1
1
1
1
1
1
1
1
1
1
1
1
1
1
1
1
1
1
1
1
1
1
1
1
1
1
1
1
1
1
1
1
1
1
1
1
1
1
1
1
1
1
1
1
1
1
1
1
1
1
1
1
1
1
1
1
1
1
1
1
1
1
1
1
1
1
1
1
1
1
1
1
1
1
1
1
1
1
1
1
1
1
1
1
1
1
1
1
1
1
1
1
1
1
1
1
1
1
1
1
1
1
1
1
1
1
1
1
1
1
1
1
1
1
1
1
1
1
1
1
1
1
1
1
1
1
1
1
1
1
1
1
1
1
1
1
1
1
1
1
1
1
1
1
1
1
1
1
1
1
1
1
1
1
1
1
1
1
1
1
1
1
1
1
1
1
1
1
1
1
1
1
1
1
1
1
1
1
1
1
1
1
1
1
1
1
1
1
1
1
1
1
1
1
1
1
1
1
1
1
1
1
1
1
1
1
1
1
1
1
1
1
1
1
1
1
1
1
1
1
1
1
1
1
1
1
1
1
1
1
1
1
1
1
1
1
1
1
1
1
1
1
1
1
1
1
1
1
1
1
1
1
1
1
1
1
1
1
1
1
1
1
1
1
1
1
1
1
1
1
1
1
1
1
1
1
1
1
1
1
1
1
1
1
1
1
1
1
1
1
1
1
1
1
1
1
1
1
1
1
1
1
1
1
1
1
1
1
1
1
1
1
1
1
1
1
1
1
1
1
1
1
1
1
1
1
1
1
1
1
1
1
1
1
1
1
1
1
1
1
1
1
1
1
1
1
1
1
1
1
1
1
1
1
1
1
1
1
1
1
1
1
1
1
1
1
1
1
1
1
1
1
1
1
1
1
1
1
1
1
1
1
1
1
1
1
1
1
1
1
1
1
1
1
1
1
1
1
1
1
1
1
1
1
1
1
1
1
1
1
1
1
1
1
1
1
1
1
1
1
1
1
1
1
1
1
1
1
1
1
1
1
1
1
1
1
1
1
1
1
1
1
1
1
1
1
1
1
1
1
1
1
1
1
1
1
1
1
1
1
1
1
1
1
1
1
1
1
1
1
1
1
1
1
1
1
1
1
1
1
1
1
1
1
1
1
1
1
1
1
1
1
1
1
1
1
1
1
1
1
1
1
1
1
1
1
1
1
1
1
1
1
1
1
1
1
1
1
1
1
1
1
1
1
1
1
1
1
1
1
1
1
1
1
1
1
1
1
1
1
1
1
1
1
1
1
1
1
1
1
1
1
1
1
1
1
1
1
1
1
1
1
1
1
1
1
1
1
1
1
1
1
1
1
1
1
1
1
1
1
1
1
1
1
1
1
1
1
1
1
1
1
1
1
1
1
1
1
1
1
1
1
1
1
1
1
1
1
1
1
1
1
1
1
1
1
1
1
1
1
1
1
1
1
1
1
1
1
1
1
1
1
1
1
1
1
1
1
1
1
1
1
1
1
1
1
1
1
1
1
1
1
1
1
1
1
1
1
1
1
1
1
1
1
1
1
1
1
1
1
1
1
1
1
1
1
1
1
1
1
1
1
1
1
1
1
1
1
1
1
1
1
1
1
1
1
1
1
1
1
1
1
1
1
1
1
1
1
1
1
1
1
1
1
1
1
1
1
1
1
1
1
1
1
1
1
1
1
1
1
1
1
1
1
1
1
1
1
1
1
1
1
1
1
1
1
1
1
1
1
1
1
1
1
1
1
1
1
1
1
1
1
1
1
1
1
1
1
1
1
1
1
1
1
1
1
1
1
1
1
1
1
1
1
1
1
1
1
1
1
1
1
1
1
1
1
1
1
1
1
1
1
1
1
1
1
1
1
1
1
1
1
1
1
1
1
1
1
1
1
1
1
1
1
1
1
1
1
1
1
1
1
1
1
1
1
1
1
1
1
1
1
1
1
1
1
1
1
1
1
1
1
1
1
1
1
1
1
1
1
1
1
1
1
1
1
1
1
1
1
1
1
1
1
1
1
1
1
1
1
1
1
1
1
1
1
1
1
1
1
1
1
1
1
1
1
1
1
1
1
1
1
1
1
1
1
1
1
1
1
1
1
1
1
1
1
1
1
1
1
1
1
1
1
1
1
1
1
1
1
1
1
1
1
1
1
1
1
1
1
1
1
1
1
1
1
1
1
1
1
1
1
1
1
1
1
1
1
1
1
1
1
1
1
1
1
1
1
1
1
1
1
1
1
1
1
1
1
1
1
1
1
1
1
1
1
1
1
1
1
1
1
1
1
1
1
1
1
1
1
1
1
1
1
1
1
1
1
1
1
1
1
1
1
1
1
1
1
1
1
1
1
1
1
1
1
1
1
1
1
1
1
1
1
1
1
1
1
1
1
1
1
1
1
1
1
1
1
1
1
1
1
1
1
1
1
1
1
1
1
1
1
1
1
1
1
1
1
1
1
1
1
1
1
1
1
1
1
1
1
1
1
1
1
1
1
1
1
1
1
1
1
1
1
1
1
1
1
1
1
1
1
1
1
1
1
1
1
1
1
1
1
1
1
1
1
1
1
1
1
1
1
1
1
1
1
1
1
1
1
1
1
1
1
1
1
1
1
1
1
1
1
1
1
1
1
1
1
1
1
1
1
1
1
1
1
1
1
1
1
1
1
1
1
1
1
1
1
1
1
1
1
1
1
1
1
1
1
1
1
1
1
1
1
1
1
1
1
1
1
1
1
1
1
1
1
1
1
1
1
1
1
1
1
1
1
1
1
1
1
1
1
1
1
1
1
1
1
1
1
1
1
1
1
1
1
1
1
1
1
1
1
1
1
1
1
1
1
1
1
1
1
1
1
1
1
1
1
1
1
1
1
1
1
1
1
1
1
1
1
1
1
1
1
1
1
1
1
1
1
1
1
1
1
1
1
1
1
1
1
1
1
1
1
1
1
1
1
1
1
1
1
1
1
1
1
1
1
1
1
1
1
1
1
1
1
1
1
1
1
1
1
1
1
1
1
1
1
1
1
1
1
1
1
1
1
1
1
1
1
1
1
1
1
1
1
1
1
1
1
1
1
1
1
1
1
1
1
1
1
1
1
1
1
1
1
1
1
1
1
1
1
1
1
1
1
1
1
1
1
1
1
1
1
1
1
1
1
1
1
1
1
1
1
1
1
1
1
1
1
1
1
1
1
1
1
1
1
1
1
1
1
1
1
1
1
1
1
1
1
1
1
1
1
1
1
1
1
1
1
1
1
1
1
1
1
1
1
1
1
1
1
1
1
1
1
1
1
1
1
1
1
1
1
1
1
1
1
1
1
1
1
1
1
1
1
1
1
1
1
1
1
1
1
1
1
1
1
1
1
1
1
1
1
1
1
1
1
1
1
1
1
1
1
1
1
1
1
1
1
1
1
1
1
1
1
1
1
1
1
1
1
1
1
1
1
1
1
1
1
1
1
1
1
1
1
1
1
1
1
1
1
1
1
1
1
1
1
1
1
1
1
1
1
1
1
1
1
1
1
1
1
1
1
1
1
1
1
1
1
1
1
1
1
1
1
1
1
1
1
1
1
1
1
1
1
1
1
1
1
1
1
1
1
1
1
1
1
1
1
1
1
1
1
1
1
1
1
1
1
1
1
1
1
1
1
1
1
1
1
1
1
1
1
1
1
1
1
1
1
1
1
1
1
1
1
1
1
1
1
1
1
1
1
1
1
1
1
1
1
1
1
1
1
1
1
1
1
1
1
1
1
1
1
1
1
1
1
1
1
1
1
1
1
1
1
1
1
1
1
1
1
1
1
1
1
1
1
1
1
1
1
1
1
1
1
1
1
1
1
1
1
1
1
1
1
1
1
1
1
1
1
1
1
1
1
1
1
1
1
1
1
1
1
1
1
1
1
1
1
1
1
1
1
1
1
1
1
1
1
1
1
1
1
1
1
1
1
1
1
1
1
1
1
1
1
1
1
1
1
1
1
1
1
1
1
1
1
1
1
1
1
1
1
1
1
1
1
1
1
1
1
1
1
1
1
1
1
1
1
1
1
1
1
1
1
1
1
1
1
1
1
1
1
1
1
1
1
1
1
1
1
1
1
1
1
1
1
1
1
1
1
1
1
1
1
1
1
1
1
1
1
1
1
1
1
1
1
1
1
1
1
1
1
1
1
1
1
1
1
1
1
1
1
1
1
1
1
1
1
1
1
1
1
1
1
1
1
1
1
1
1
1
1
1
1
1
1
1
1
1
1
1
1
1
1
1
1
1
1
1
1
1
1
1
1
1
1
1
1
1
1
1
1
1
1
1
1
1
1
1
1
1
1
1
1
1
1
1
1
1
1
1
1
1
1
1
1
1
1
1
1
1
1
1
1
1
1
1
1
1
1
1
1
1
1
1
1
1
1
1
1
1
1
1
1
1
1
1
1
1
1
1
1
1
1
1
1
1
1
1
1
1
1
1
1
1
1
1
1
1
1
1
1
1
1
1
1
1
1
1
1
1
1
1
1
1
1
1
1
1
1
1
1
1
1
1
1
1
1
1
1
1
1
1
1
1
1
1
1
1
1
1
1
1
1
1
1
1
1
1
1
1
1
1
1
1
1
1
1
1
1
1
1
1
1
1
1
1
1
1
1
1
1
1
1
1
1
1
1
1
1
1
1
1
1
1
1
1
1
1
1
1
1
1
1
1
1
1
1
1
1
1
1
1
1
1
1
1
1
1
1
1
1
1
1
1
1
1
1
1
1
1
1
1
1
1
1
1
1
1
1
1
1
1
1
1
1
1
1
1
1
1
1
1
1
1
1
1
1
1
1
1
1
1
1
1
1
1
1
1
1
1
1
1
1
1
1
1
1
1
1
1
1
1
1
1
1
1
1
1
1
1
1
1
1
1
1
1
1
1
1
1
1
1
1
1
1
1
1
1
1
1
1
1
1
1
1
1
1
1
1
1
1
1
1
1
1
1
1
1
1
1
1
1
1
1
1
1
1
1
1
1
1
1
1
1
1
1
1
1
1
1
1
1
1
1
1
1
1
1
1
1
1
1
1
1
1
1
1
1
1
1
1
1
1
1
1
1
1
1
1
1
1
1
1
1
1
1
1
1
1
1
1
1
1
1
1
1
1
1
1
1
1
1
1
1
1
1
1
1
1
1
1
1
1
1
1
1
1
1
1
1
1
1
1
1
1
1
1
1
1
1
1
1
1
1
1
1
1
1
1
1
1
1
1
1
1
1
1
1
1
1
1
1
1
1
1
1
1
1
1
1
1
1
1
1
1
1
1
1
1
1
1
1
1
1
1
1
1
1
1
1
1
1
1
1
1
1
1
1
1
1
1
1
1
1
1
1
1
1
1
1
1
1
1
1
1
1
1
1
1
1
1
1
1
1
1
1
1
1
1
1
1
1
1
1
1
1
1
1
1
1
1
1
1
1
1
1
1
1
1
1
1
1
1
1
1
1
1
1
1
1
1
1
1
1
1
1
1
1
1
1
1
1
1
1
1
1
1
1
1
1
1
1
1
1
1
1
1
1
1
1
1
1
1
1
1
1
1
1
1
1
1
1
1
1
1
1
1
1
1
1
1
1
1
1
1
1
1
1
1
1
1
1
1
1
1
1
1
1
1
1
1
1
1
1
1
1
1
1
1
1
1
1
1
1
1
1
1
1
1
1
1
1
1
1
1
1
1
1
1
1
1
1
1
1
1
1
1
1
1
1
1
1
1
1
1
1
1
1
1
1
1
1
1
1
1
1
1
1
1
1
1
1
1
1
1
1
1
1
1
1
1
1
1
1
1
1
1
1
1
1
1
VECTORS v double
-0.9915774 -0.9915774 -0.9915774
-2.0613922 -0.9915774 -0.9915774
-3.124747 -0.9915774 -0.9915774
-4.1881058 -0.9915774 -0.9915774
-5.2514688 -0.9915774 -0.9915774
-6.314807 -0.9915774 -0.9915774
-7.3781864 -0.9915774 -0.9915774
-8.4415247 -0.9915774 -0.9915774
-9.5049041 -0.9915774 -0.9915774
-10.568242 -0.9915774 -0.9915774
-11.631622 -0.9915774 -0.9915774
-12.69496 -0.9915774 -0.9915774
-13.758339 -0.9915774 -0.9915774
-14.821678 -0.9915774 -0.9915774
-15.885057 -0.9915774 -0.9915774
-16.948395 -0.9915774 -0.9915774
-18.011775 -0.9915774 -0.9915774
-19.075113 -0.9915774 -0.9915774
-20.138493 -0.9915774 -0.9915774
-21.208287 -0.9915774 -0.9915774
-0.9915774 -2.0613922 -0.9915774
-2.0613922 -2.0613922 -0.9915774
-3.124747 -2.0613922 -0.9915774
-4.1881058 -2.0613922 -0.9915774
-5.2514688 -2.0613922 -0.9915774
-6.314807 -2.0613922 -0.9915774
-7.3781864 -2.0613922 -0.9915774
-8.4415247 -2.0613922 -0.9915774
-9.5049041 -2.0613922 -0.9915774
-10.568242 -2.0613922 -0.9915774
-11.631622 -2.0613922 -0.9915774
-12.69496 -2.0613922 -0.9915774
-13.758339 -2.0613922 -0.9915774
-14.821678 -2.0613922 -0.9915774
-15.885057 -2.0613922 -0.9915774
-16.948395 -2.0613922 -0.9915774
-18.011775 -2.0613922 -0.9915774
-19.075113 -2.0613922 -0.9915774
-20.138493 -2.0613922 -0.9915774
-21.208287 -2.0613922 -0.9915774
-0.9915774 -3.124747 -0.9915774
-2.0613922 -3.124747 -0.9915774
-3.124747 -3.124747 -0.9915774
-4.1881058 -3.124747 -0.9915774
-5.2514688 -3.124747 -0.9915774
-6.314807 -3.124747 -0.9915774
-7.3781864 -3.124747 -0.9915774
-8.4415247 -3.124747 -0.9915774
-9.5049041 -3.124747 -0.9915774
-10.568242 -3.124747 -0.9915774
-11.631622 -3.124747 -0.9915774
-12.69496 -3.124747 -0.9915774
-13.758339 -3.124747 -0.9915774
-14.821678 -3.124747 -0.9915774
-15.885057 -3.124747 -0.9915774
-16.948395 -3.124747 -0.9915774
-18.011775 -3.124747 -0.9915774
-19.075113 -3.124747 -0.9915774
-20.138493 -3.124747 -0.9915774
-21.208287 -3.124747 -0.9915774
-0.9915774 -4.1881058 -0.9915774
-2.0613922 -4.1881058 -0.9915774
-3.124747 -4.1881058 -0.9915774
-4.1881058 -4.1881058 -0.9915774
-5.2514688 -4.1881058 -0.9915774
-6.314807 -4.1881058 -0.9915774
-7.3781864 -4.1881058 -0.9915774
-8.4415247 -4.1881058 -0.9915774
-9.5049041 -4.1881058 -0.9915774
-10.568242 -4.1881058 -0.9915774
-11.631622 -4.1881058 -0.9915774
-12.69496 -4.1881058 -0.9915774
-13.758339 -4.1881058 -0.9915774
-14.821678 -4.1881058 -0.9915774
-15.885057 -4.1881058 -0.9915774
-16.948395 -4.1881058 -0.9915774
-18.011775 -4.1881058 -0.9915774
-19.075113 -4.1881058 -0.9915774
-20.138493 -4.1881058 -0.9915774
-21.208287 -4.1881058 -0.9915774
-0.9915774 -5.2514688 -0.9915774
-2.0613922 -5.2514688 -0.9915774
-3.124747 -5.2514688 -0.9915774
-4.1881058 -5.2514688 -0.9915774
-5.2514688 -5.2514688 -0.9915774
-6.314807 -5.2514688 -0.9915774
-7.3781864 -5.2514688 -0.9915774
-8.4415247 -5.2514688 -0.9915774
-9.5049041 -5.2514688 -0.9915774
-10.568242 -5.2514688 -0.9915774
-11.631622 -5.2514688 -0.9915774
-12.69496 -5.2514688 -0.9915774
-13.758339 -5.2514688 -0.9915774
-14.821678 -5.2514688 -0.9915774
-15.885057 -5.2514688 -0.9915774
-16.948395 -5.2514688 -0.9915774
-18.011775 -5.2514688 -0.9915774
-19.075113 -5.2514688 -0.9915774
-20.138493 -5.2514688 -0.9915774
-21.208287 -5.2514688 -0.9915774
-0.9915774 -6.314807 -0.9915774
-2.0613922 -6.314807 -0.9915774
-3.124747 -6.314807 -0.9915774
-4.1881058 -6.314807 -0.9915774
-5.2514688 -6.314807 -0.9915774
-6.314807 -6.314807 -0.9915774
-7.3781864 -6.314807 -0.9915774
-8.4415247 -6.314807 -0.9915774
-9.5049041 -6.314807 -0.9915774
-10.568242 -6.314807 -0.9915774
-11.631622 -6.314807 -0.9915774
-12.69496 -6.314807 -0.9915774
-13.758339 -6.314807 -0.9915774
-14.821678 -6.314807 -0.9915774
-15.885057 -6.314807 -0.9915774
-16.948395 -6.314807 -0.9915774
-18.011775 -6.314807 -0.9915774
-19.075113 -6.314807 -0.9915774
-20.138493 -6.314807 -0.9915774
-21.208287 -6.314807 -0.9915774
-0.9915774 -7.3781864 -0.9915774
-2.0613922 -7.3781864 -0.9915774
-3.124747 -7.3781864 -0.9915774
-4.1881058 -7.3781864 -0.9915774
-5.2514688 -7.3781864 -0.9915774
-6.314807 -7.3781864 -0.9915774
-7.3781864 -7.3781864 -0.9915774
-8.4415247 -7.3781864 -0.9915774
-9.5049041 -7.3781864 -0.9915774
-10.568242 -7.3781864 -0.9915774
-11.631622 -7.3781864 -0.9915774
-12.69496 -7.3781864 -0.9915774
-13.758339 -7.3781864 -0.9915774
-14.821678 -7.3781864 -0.9915774
-15.885057 -7.3781864 -0.9915774
-16.948395 -7.3781864 -0.9915774
-18.011775 -7.3781864 -0.9915774
-19.075113 -7.3781864 -0.9915774
-20.138493 -7.3781864 -0.9915774
-21.208287 -7.3781864 -0.9915774
-0.9915774 -8.4415247 -0.9915774
-2.0613922 -8.4415247 -0.9915774
-3.124747 -8.4415247 -0.9915774
-4.1881058 -8.4415247 -0.9915774
-5.2514688 -8.4415247 -0.9915774
-6.314807 -8.4415247 -0.9915774
-7.3781864 -8.4415247 -0.9915774
-8.4415247 -8.4415247 -0.9915774
-9.5049041 -8.4415247 -0.9915774
-10.568242 -8.4415247 -0.9915774
-11.631622 -8.4415247 -0.9915774
-12.69496 -8.4415247 -0.9915774
-13.758339 -8.4415247 -0.9915774
-14.821678 -8.4415247 -0.9915774
-15.885057 -8.4415247 -0.9915774
-16.948395 -8.4415247 -0.9915774
-18.011775 -8.4415247 -0.9915774
-19.075113 -8.4415247 -0.9915774
-20.138493 -8.4415247 -0.9915774
-21.208287 -8.4415247 -0.9915774
-0.9915774 -9.5049041 -0.9915774
-2.0613922 -9.5049041 -0.9915774
-3.124747 -9.5049041 -0.9915774
-4.1881058 -9.5049041 -0.9915774
-5.2514688 -9.5049041 -0.9915774
-6.314807 -9.5049041 -0.9915774
-7.3781864 -9.5049041 -0.9915774
-8.4415247 -9.5049041 -0.9915774
-9.5049041 -9.5049041 -0.9915774
-10.568242 -9.5049041 -0.9915774
-11.631622 -9.5049041 -0.9915774
-12.69496 -9.5049041 -0.9915774
-13.758339 -9.5049041 -0.9915774
-14.821678 -9.5049041 -0.9915774
-15.885057 -9.5049041 -0.9915774
-16.948395 -9.5049041 -0.9915774
-18.011775 -9.5049041 -0.9915774
-19.075113 -9.5049041 -0.9915774
-20.138493 -9.5049041 -0.9915774
-21.208287 -9.5049041 -0.9915774
-0.9915774 -10.568242 -0.9915774
-2.0613922 -10.568242 -0.9915774
-3.124747 -10.568242 -0.9915774
-4.1881058 -10.568242 -0.9915774
-5.2514688 -10.568242 -0.9915774
-6.314807 -10.568242 -0.9915774
-7.3781864 -10.568242 -0.9915774
-8.4415247 -10.568242 -0.9915774
-9.5049041 -10.568242 -0.9915774
-10.568242 -10.568242 -0.9915774
-11.631622 -10.568242 -0.9915774
-12.69496 -10.568242 -0.9915774
-13.758339 -10.568242 -0.9915774
-14.821678 -10.568242 -0.9915774
-15.885057 -10.568242 -0.9915774
-16.948395 -10.568242 -0.9915774
-18.011775 -10.568242 -0.9915774
-19.075113 -10.568242 -0.9915774
-20.138493 -10.568242 -0.9915774
-21.208287 -10.568242 -0.9915774
-0.9915774 -11.631622 -0.9915774
-2.0613922 -11.631622 -0.9915774
-3.124747 -11.631622 -0.9915774
-4.1881058 -11.631622 -0.9915774
-5.2514688 -11.631622 -0.9915774
-6.314807 -11.631622 -0.9915774
-7.3781864 -11.631622 -0.9915774
-8.4415247 -11.631622 -0.9915774
-9.5049041 -11.631622 -0.9915774
-10.568242 -11.631622 -0.9915774
-11.631622 -11.631622 -0.9915774
-12.69496 -11.631622 -0.9915774
-13.758339 -11.631622 -0.9915774
-14.821678 -11.631622 -0.9915774
-15.885057 -11.631622 -0.9915774
-16.948395 -11.631622 -0.9915774
-18.011775 -11.631622 -0.9915774
-19.075113 -11.631622 -0.9915774
-20.138493 -11.631622 -0.9915774
-21.208287 -11.631622 -0.9915774
-0.9915774 -12.69496 -0.9915774
-2.0613922 -12.69496 -0.9915774
-3.124747 -12.69496 -0.9915774
-4.1881058 -12.69496 -0.9915774
-5.2514688 -12.69496 -0.9915774
-6.314807 -12.69496 -0.9915774
-7.3781864 -12.69496 -0.9915774
-8.4415247 -12.69496 -0.9915774
-9.5049041 -12.69496 -0.9915774
-10.568242 -12.69496 -0.9915774
-11.631622 -12.69496 -0.9915774
-12.69496 -12.69496 -0.9915774
-13.758339 -12.69496 -0.9915774
-14.821678 -12.69496 -0.9915774
-15.885057 -12.69496 -0.9915774
-16.948395 -12.69496 -0.9915774
-18.011775 -12.69496 -0.9915774
-19.075113 -12.69496 -0.9915774
-20.138493 -12.69496 -0.9915774
-21.208287 -12.69496 -0.9915774
-0.9915774 -13.758339 -0.9915774
-2.0613922 -13.758339 -0.9915774
-3.124747 -13.758339 -0.9915774
-4.1881058 -13.758339 -0.9915774
-5.2514688 -13.758339 -0.9915774
-6.314807 -13.758339 -0.9915774
-7.3781864 -13.758339 -0.9915774
-8.4415247 -13.758339 -0.9915774
-9.5049041 -13.758339 -0.9915774
-10.568242 -13.758339 -0.9915774
-11.631622 -13.758339 -0.9915774
-12.69496 -13.758339 -0.9915774
-13.758339 -13.758339 -0.9915774
-14.821678 -13.758339 -0.9915774
-15.885057 -13.758339 -0.9915774
-16.948395 -13.758339 -0.9915774
-18.011775 -13.758339 -0.9915774
-19.075113 -13.758339 -0.9915774
-20.138493 -13.758339 -0.9915774
-21.208287 -13.758339 -0.9915774
-0.9915774 -14.821678 -0.9915774
-2.0613922 -14.821678 -0.9915774
-3.124747 -14.821678 -0.9915774
-4.1881058 -14.821678 -0.9915774
-5.2514688 -14.821678 -0.9915774
-6.314807 -14.821678 -0.9915774
-7.3781864 -14.821678 -0.9915774
-8.4415247 -14.821678 -0.9915774
-9.5049041 -14.821678 -0.9915774
-10.568242 -14.821678 -0.9915774
-11.631622 -14.821678 -0.9915774
-12.69496 -14.821678 -0.9915774
-13.758339 -14.821678 -0.9915774
-14.821678 -14.821678 -0.9915774
-15.885057 -14.821678 -0.9915774
-16.948395 -14.821678 -0.9915774
-18.011775 -14.821678 -0.9915774
-19.075113 -14.821678 -0.9915774
-20.138493 -14.821678 -0.9915774
-21.208287 -14.821678 -0.9915774
-0.9915774 -15.885057 -0.9915774
-2.0613922 -15.885057 -0.9915774
-3.124747 -15.885057 -0.9915774
-4.1881058 -15.885057 -0.9915774
-5.2514688 -15.885057 -0.9915774
-6.314807 -15.885057 -0.9915774
-7.3781864 -15.885057 -0.9915774
-8.4415247 -15.885057 -0.9915774
-9.5049041 -15.885057 -0.9915774
-10.568242 -15.885057 -0.9915774
-11.631622 -15.885057 -0.9915774
-12.69496 -15.885057 -0.9915774
-13.758339 -15.885057 -0.9915774
-14.821678 -15.885057 -0.9915774
-15.885057 -15.885057 -0.9915774
-16.948395 -15.885057 -0.9915774
-18.011775 -15.885057 -0.9915774
-19.075113 -15.885057 -0.9915774
-20.138493 -15.885057 -0.9915774
-21.208287 -15.885057 -0.9915774
-0.9915774 -16.948395 -0.9915774
-2.0613922 -16.948395 -0.9915774
-3.124747 -16.948395 -0.9915774
-4.1881058 -16.948395 -0.9915774
-5.2514688 -16.948395 -0.9915774
-6.314807 -16.948395 -0.9915774
-7.3781864 -16.948395 -0.9915774
-8.4415247 -16.948395 -0.9915774
-9.5049041 -16.948395 -0.9915774
-10.568242 -16.948395 -0.9915774
-11.631622 -16.948395 -0.9915774
-12.69496 -16.948395 -0.9915774
-13.758339 -16.948395 -0.9915774
-14.821678 -16.948395 -0.9915774
-15.885057 -16.948395 -0.9915774
-16.948395 -16.948395 -0.9915774
-18.011775 -16.948395 -0.9915774
-19.075113 -16.948395 -0.9915774
-20.138493 -16.948395 -0.9915774
-21.208287 -16.948395 -0.9915774
-0.9915774 -18.011775 -0.9915774
-2.0613922 -18.011775 -0.9915774
-3.124747 -18.011775 -0.9915774
-4.1881058 -18.011775 -0.9915774
-5.2514688 -18.011775 -0.9915774
-6.314807 -18.011775 -0.9915774
-7.3781864 -18.011775 -0.9915774
-8.4415247 -18.011775 -0.9915774
-9.5049041 -18.011775 -0.9915774
-10.568242 -18.011775 -0.9915774
-11.631622 -18.011775 -0.9915774
-12.69496 -18.011775 -0.9915774
-13.758339 -18.011775 -0.9915774
-14.821678 -18.011775 -0.9915774
-15.885057 -18.011775 -0.9915774
-16.948395 -18.011775 -0.9915774
-18.011775 -18.011775 -0.9915774
-19.075113 -18.011775 -0.9915774
-20.138493 -18.011775 -0.9915774
-21.208287 -18.011775 -0.9915774
-0.9915774 -19.075113 -0.9915774
-2.0613922 -19.075113 -0.9915774
-3.124747 -19.075113 -0.9915774
-4.1881058 -19.075113 -0.9915774
-5.2514688 -19.075113 -0.9915774
-6.314807 -19.075113 -0.9915774
-7.3781864 -19.075113 -0.9915774
-8.4415247 -19.075113 -0.9915774
-9.5049041 -19.075113 -0.9915774
-10.568242 -19.075113 -0.9915774
-11.631622 -19.075113 -0.9915774
-12.69496 -19.075113 -0.9915774
-13.758339 -19.075113 -0.9915774
-14.821678 -19.075113 -0.9915774
-15.885057 -19.075113 -0.9915774
-16.948395 -19.075113 -0.9915774
-18.011775 -19.075113 -0.9915774
-19.075113 -19.075113 -0.9915774
-20.138493 -19.075113 -0.9915774
-21.208287 -19.075113 -0.9915774
-0.9915774 -20.138493 -0.9915774
-2.0613922 -20.138493 -0.9915774
-3.124747 -20.138493 -0.9915774
-4.1881058 -20.138493 -0.9915774
-5.2514688 -20.138493 -0.9915774
-6.314807 -20.138493 -0.9915774
-7.3781864 -20.138493 -0.9915774
-8.4415247 -20.138493 -0.9915774
-9.5049041 -20.138493 -0.9915774
-10.568242 -20.138493 -0.9915774
-11.631622 -20.138493 -0.9915774
-12.69496 -20.138493 -0.9915774
-13.758339 -20.138493 -0.9915774
-14.821678 -20.138493 -0.9915774
-15.885057 -20.138493 -0.9915774
-16.948395 -20.138493 -0.9915774
-18.011775 -20.138493 -0.9915774
-19.075113 -20.138493 -0.9915774
-20.138493 -20.138493 -0.9915774
-21.208287 -20.138493 -0.9915774
-0.9915774 -21.208287 -0.9915774
-2.0613922 -21.208287 -0.9915774
-3.124747 -21.208287 -0.9915774
-4.1881058 -21.208287 -0.9915774
-5.2514688 -21.208287 -0.9915774
-6.314807 -21.208287 -0.9915774
-7.3781864 -21.208287 -0.9915774
-8.4415247 -21.208287 -0.9915774
-9.5049041 -21.208287 -0.9915774
-10.568242 -21.208287 -0.9915774
-11.631622 -21.208287 -0.9915774
-12.69496 -21.208287 -0.9915774
-13.758339 -21.208287 -0.9915774
-14.821678 -21.208287 -0.9915774
-15.885057 -21.208287 -0.9915774
-16.948395 -21.208287 -0.9915774
-18.011775 -21.208287 -0.9915774
-19.075113 -21.208287 -0.9915774
-20.138493 -21.208287 -0.9915774
-21.208287 -21.208287 -0.9915774
-0.9915774 -0.9915774 -2.0613922
-2.0613922 -0.9915774 -2.0613922
-3.124747 -0.9915774 -2.0613922
-4.1881058 -0.9915774 -2.0613922
-5.2514688 -0.9915774 -2.0613922
-6.314807 -0.9915774 -2.0613922
-7.3781864 -0.9915774 -2.0613922
-8.4415247 -0.9915774 -2.0613922
-9.5049041 -0.9915774 -2.0613922
-10.568242 -0.9915774 -2.0613922
-11.631622 -0.9915774 -2.0613922
-12.69496 -0.9915774 -2.0613922
-13.758339 -0.9915774 -2.0613922
-14.821678 -0.9915774 -2.0613922
-15.885057 -0.9915774 -2.0613922
-16.948395 -0.9915774 -2.0613922
-18.011775 -0.9915774 -2.0613922
-19.075113 -0.9915774 -2.0613922
-20.138493 -0.9915774 -2.0613922
-21.208287 -0.9915774 -2.0613922
-0.9915774 -2.0613922 -2.0613922
-2.0613922 -2.0613922 -2.0613922
-3.124747 -2.0613922 -2.0613922
-4.1881058 -2.0613922 -2.0613922
-5.2514688 -2.0613922 -2.0613922