# vtk DataFile Version 4.0
hesp visualization file
ASCII
DATASET UNSTRUCTURED_GRID
POINTS 3000 double
0.20134908 0.20134908 0.20134908
2.4549385 0.20134908 0.20134908
4.7119865 0.20134908 0.20134908
6.9690433 0.20134908 0.20134908
9.2261089 0.20134908 0.20134908
11.483122 0.20134908 0.20134908
13.740222 0.20134908 0.20134908
15.997236 0.20134908 0.20134908
18.254336 0.20134908 0.20134908
20.511349 0.20134908 0.20134908
22.76845 0.20134908 0.20134908
25.025463 0.20134908 0.20134908
27.282563 0.20134908 0.20134908
29.539576 0.20134908 0.20134908
31.796677 0.20134908 0.20134908
34.05369 0.20134908 0.20134908
36.31079 0.20134908 0.20134908
38.567804 0.20134908 0.20134908
40.824904 0.20134908 0.20134908
43.07845 0.20134908 0.20134908
0.20134908 2.4549385 0.20134908
2.4549385 2.4549385 0.20134908
4.7119865 2.4549385 0.20134908
6.9690433 2.4549385 0.20134908
9.2261089 2.4549385 0.20134908
11.483122 2.4549385 0.20134908
13.740222 2.4549385 0.20134908
15.997236 2.4549385 0.20134908
18.254336 2.4549385 0.20134908
20.511349 2.4549385 0.20134908
22.76845 2.4549385 0.20134908
25.025463 2.4549385 0.20134908
27.282563 2.4549385 0.20134908
29.539576 2.4549385 0.20134908
31.796677 2.4549385 0.20134908
34.05369 2.4549385 0.20134908
36.31079 2.4549385 0.20134908
38.567804 2.4549385 0.20134908
40.824904 2.4549385 0.20134908
43.07845 2.4549385 0.20134908
0.20134908 4.7119865 0.20134908
2.4549385 4.7119865 0.20134908
4.7119865 4.7119865 0.20134908
6.9690433 4.7119865 0.20134908
9.2261089 4.7119865 0.20134908
11.483122 4.7119865 0.20134908
13.740222 4.7119865 0.20134908
15.997236 4.7119865 0.20134908
18.254336 4.7119865 0.20134908
20.511349 4.7119865 0.20134908
22.76845 4.7119865 0.20134908
25.025463 4.7119865 0.20134908
27.282563 4.7119865 0.20134908
29.539576 4.7119865 0.20134908
31.796677 4.7119865 0.20134908
34.05369 4.7119865 0.20134908
36.31079 4.7119865 0.20134908
38.567804 4.7119865 0.20134908
40.824904 4.7119865 0.20134908
43.07845 4.7119865 0.20134908
0.20134908 6.9690433 0.20134908
2.4549385 6.9690433 0.20134908
4.7119865 6.9690433 0.20134908
6.9690433 6.9690433 0.20134908
9.2261089 6.9690433 0.20134908
11.483122 6.9690433 0.20134908
13.740222 6.9690433 0.20134908
15.997236 6.9690433 0.20134908
18.254336 6.9690433 0.20134908
20.511349 6.9690433 0.20134908
22.76845 6.9690433 0.20134908
25.025463 6.9690433 0.20134908
27.282563 6.9690433 0.20134908
29.539576 6.9690433 0.20134908
31.796677 6.9690433 0.20134908
34.05369 6.9690433 0.20134908
36.31079 6.9690433 0.20134908
38.567804 6.9690433 0.20134908
40.824904 6.9690433 0.20134908
43.07845 6.9690433 0.20134908
0.20134908 9.2261089 0.20134908
2.4549385 9.2261089 0.20134908
4.7119865 9.2261089 0.20134908
6.9690433 9.2261089 0.20134908
9.2261089 9.2261089 0.20134908
11.483122 9.2261089 0.20134908
13.740222 9.2261089 0.20134908
15.997236 9.2261089 0.20134908
18.254336 9.2261089 0.20134908
20.511349 9.2261089 0.20134908
22.76845 9.2261089 0.20134908
25.025463 9.2261089 0.20134908
27.282563 9.2261089 0.20134908
29.539576 9.2261089 0.20134908
31.796677 9.2261089 0.20134908
34.05369 9.2261089 0.20134908
36.31079 9.2261089 0.20134908
38.567804 9.2261089 0.20134908
40.824904 9.2261089 0.20134908
43.07845 9.2261089 0.20134908
0.20134908 11.483122 0.20134908
2.4549385 11.483122 0.20134908
4.7119865 11.483122 0.20134908
6.9690433 11.483122 0.20134908
9.2261089 11.483122 0.20134908
11.483122 11.483122 0.20134908
13.740222 11.483122 0.20134908
15.997236 11.483122 0.20134908
18.254336 11.483122 0.20134908
20.511349 11.483122 0.20134908
22.76845 11.483122 0.20134908
25.025463 11.483122 0.20134908
27.282563 11.483122 0.20134908
29.539576 11.483122 0.20134908
31.796677 11.483122 0.20134908
34.05369 11.483122 0.20134908
36.31079 11.483122 0.20134908
38.567804 11.483122 0.20134908
40.824904 11.483122 0.20134908
43.07845 11.483122 0.20134908
0.20134908 13.740222 0.20134908
2.4549385 13.740222 0.20134908
4.7119865 13.740222 0.20134908
6.9690433 13.740222 0.20134908
9.2261089 13.740222 0.20134908
11.483122 13.740222 0.20134908
13.740222 13.740222 0.20134908
15.997236 13.740222 0.20134908
18.254336 13.740222 0.20134908
20.511349 13.740222 0.20134908
22.76845 13.740222 0.20134908
25.025463 13.740222 0.20134908
27.282563 13.740222 0.20134908
29.539576 13.740222 0.20134908
31.796677 13.740222 0.20134908
34.05369 13.740222 0.20134908
36.31079 13.740222 0.20134908
38.567804 13.740222 0.20134908
40.824904 13.740222 0.20134908
43.07845 13.740222 0.20134908
0.20134908 15.997236 0.20134908
2.4549385 15.997236 0.20134908
4.7119865 15.997236 0.20134908
6.9690433 15.997236 0.20134908
9.2261089 15.997236 0.20134908
11.483122 15.997236 0.20134908
13.740222 15.997236 0.20134908
15.997236 15.997236 0.20134908
18.254336 15.997236 0.20134908
20.511349 15.997236 0.20134908
22.76845 15.997236 0.20134908
25.025463 15.997236 0.20134908
27.282563 15.997236 0.20134908
29.539576 15.997236 0.20134908
31.796677 15.997236 0.20134908
34.05369 15.997236 0.20134908
36.31079 15.997236 0.20134908
38.567804 15.997236 0.20134908
40.824904 15.997236 0.20134908
43.07845 15.997236 0.20134908
0.20134908 18.254336 0.20134908
2.4549385 18.254336 0.20134908
4.7119865 18.254336 0.20134908
6.9690433 18.254336 0.20134908
9.2261089 18.254336 0.20134908
11.483122 18.254336 0.20134908
13.740222 18.254336 0.20134908
15.997236 18.254336 0.20134908
18.254336 18.254336 0.20134908
20.511349 18.254336 0.20134908
22.76845 18.254336 0.20134908
25.025463 18.254336 0.20134908
27.282563 18.254336 0.20134908
29.539576 18.254336 0.20134908
31.796677 18.254336 0.20134908
34.05369 18.254336 0.20134908
36.31079 18.254336 0.20134908
38.567804 18.254336 0.20134908
40.824904 18.254336 0.20134908
43.07845 18.254336 0.20134908
0.20134908 20.511349 0.20134908
2.4549385 20.511349 0.20134908
4.7119865 20.511349 0.20134908
6.9690433 20.511349 0.20134908
9.2261089 20.511349 0.20134908
11.483122 20.511349 0.20134908
13.740222 20.511349 0.20134908
15.997236 20.511349 0.20134908
18.254336 20.511349 0.20134908
20.511349 20.511349 0.20134908
22.76845 20.511349 0.20134908
25.025463 20.511349 0.20134908
27.282563 20.511349 0.20134908
29.539576 20.511349 0.20134908
31.796677 20.511349 0.20134908
34.05369 20.511349 0.20134908
36.31079 20.511349 0.20134908
38.567804 20.511349 0.20134908
40.824904 20.511349 0.20134908
43.07845 20.511349 0.20134908
0.20134908 22.76845 0.20134908
2.4549385 22.76845 0.20134908
4.7119865 22.76845 0.20134908
6.9690433 22.76845 0.20134908
9.2261089 22.76845 0.20134908
11.483122 22.76845 0.20134908
13.740222 22.76845 0.20134908
15.997236 22.76845 0.20134908
18.254336 22.76845 0.20134908
20.511349 22.76845 0.20134908
22.76845 22.76845 0.20134908
25.025463 22.76845 0.20134908
27.282563 22.76845 0.20134908
29.539576 22.76845 0.20134908
31.796677 22.76845 0.20134908
34.05369 22.76845 0.20134908
36.31079 22.76845 0.20134908
38.567804 22.76845 0.20134908
40.824904 22.76845 0.20134908
43.07845 22.76845 0.20134908
0.20134908 25.025463 0.20134908
2.4549385 25.025463 0.20134908
4.7119865 25.025463 0.20134908
6.9690433 25.025463 0.20134908
9.2261089 25.025463 0.20134908
11.483122 25.025463 0.20134908
13.740222 25.025463 0.20134908
15.997236 25.025463 0.20134908
18.254336 25.025463 0.20134908
20.511349 25.025463 0.20134908
22.76845 25.025463 0.20134908
25.025463 25.025463 0.20134908
27.282563 25.025463 0.20134908
29.539576 25.025463 0.20134908
31.796677 25.025463 0.20134908
34.05369 25.025463 0.20134908
36.31079 25.025463 0.20134908
38.567804 25.025463 0.20134908
40.824904 25.025463 0.20134908
43.07845 25.025463 0.20134908
0.20134908 27.282563 0.20134908
2.4549385 27.282563 0.20134908
4.7119865 27.282563 0.20134908
6.9690433 27.282563 0.20134908
9.2261089 27.282563 0.20134908
11.483122 27.282563 0.20134908
13.740222 27.282563 0.20134908
15.997236 27.282563 0.20134908
18.254336 27.282563 0.20134908
20.511349 27.282563 0.20134908
22.76845 27.282563 0.20134908
25.025463 27.282563 0.20134908
27.282563 27.282563 0.20134908
29.539576 27.282563 0.20134908
31.796677 27.282563 0.20134908
34.05369 27.282563 0.20134908
36.31079 27.282563 0.20134908
38.567804 27.282563 0.20134908
40.824904 27.282563 0.20134908
43.07845 27.282563 0.20134908
0.20134908 29.539576 0.20134908
2.4549385 29.539576 0.20134908
4.7119865 29.539576 0.20134908
6.9690433 29.539576 0.20134908
9.2261089 29.539576 0.20134908
11.483122 29.539576 0.20134908
13.740222 29.539576 0.20134908
15.997236 29.539576 0.20134908
18.254336 29.539576 0.20134908
20.511349 29.539576 0.20134908
22.76845 29.539576 0.20134908
25.025463 29.539576 0.20134908
27.282563 29.539576 0.20134908
29.539576 29.539576 0.20134908
31.796677 29.539576 0.20134908
34.05369 29.539576 0.20134908
36.31079 29.539576 0.20134908
38.567804 29.539576 0.20134908
40.824904 29.539576 0.20134908
43.07845 29.539576 0.20134908
0.20134908 31.796677 0.20134908
2.4549385 31.796677 0.20134908
4.7119865 31.796677 0.20134908
6.9690433 31.796677 0.20134908
9.2261089 31.796677 0.20134908
11.483122 31.796677 0.20134908
13.740222 31.796677 0.20134908
15.997236 31.796677 0.20134908
18.254336 31.796677 0.20134908
20.511349 31.796677 0.20134908
22.76845 31.796677 0.20134908
25.025463 31.796677 0.20134908
27.282563 31.796677 0.20134908
29.539576 31.796677 0.20134908
31.796677 31.796677 0.20134908
34.05369 31.796677 0.20134908
36.31079 31.796677 0.20134908
38.567804 31.796677 0.20134908
40.824904 31.796677 0.20134908
43.07845 31.796677 0.20134908
0.20134908 34.05369 0.20134908
2.4549385 34.05369 0.20134908
4.7119865 34.05369 0.20134908
6.9690433 34.05369 0.20134908
9.2261089 34.05369 0.20134908
11.483122 34.05369 0.20134908
13.740222 34.05369 0.20134908
15.997236 34.05369 0.20134908
18.254336 34.05369 0.20134908
20.511349 34.05369 0.20134908
22.76845 34.05369 0.20134908
25.025463 34.05369 0.20134908
27.282563 34.05369 0.20134908
29.539576 34.05369 0.20134908
31.796677 34.05369 0.20134908
34.05369 34.05369 0.20134908
36.31079 34.05369 0.20134908
38.567804 34.05369 0.20134908
40.824904 34.05369 0.20134908
43.07845 34.05369 0.20134908
0.20134908 36.31079 0.20134908
[...]
POINT_DATA 3000
SCALARS m double
LOOKUP_TABLE default
1
1
1
1
1
1
1
1
1
1
1
1
1
1
1
1
1
1
1
1
1
1
1
1
1
1
1
1
1
1
1
1
1
1
1
1
1
1
1
1
1
1
1
1
1
1
1
1
1
1
1
1
1
1
1
1
1
1
1
1
1
1
1
1
1
1
1
1
1
1
1
1
1
1
1
1
1
1
1
1
1
1
1
1
1
1
1
1
1
1
1
1
1
1
1
1
1
1
1
1
1
1
1
1
1
1
1
1
1
1
1
1
1
1
1
1
1
1
1
1
1
1
1
1
1
1
1
1
1
1
1
1
1
1
1
1
1
1
1
1
1
1
1
1
1
1
1
1
1
1
1
1
1
1
1
1
1
1
1
1
1
1
1
1
1
1
1
1
1
1
1
1
1
1
1
1
1
1
1
1
1
1
1
1
1
1
1
1
1
1
1
1
1
1
1
1
1
1
1
1
1
1
1
1
1
1
1
1
1
1
1
1
1
1
1
1
1
1
1
1
1
1
1
1
1
1
1
1
1
1
1
1
1
1
1
1
1
1
1
1
1
1
1
1
1
1
1
1
1
1
1
1
1
1
1
1
1
1
1
1
1
1
1
1
1
1
1
1
1
1
1
1
1
1
1
1
1
1
1
1
1
1
1
1
1
1
1
1
1
1
1
1
1
1
1
1
1
1
1
1
1
1
1
1
1
1
1
1
1
1
1
1
1
1
1
1
1
1
1
1
1
1
1
1
1
1
1
1
1
1
1
1
1
1
1
1
1
1
1
1
1
1
1
1
1
1
1
1
1
1
1
1
1
1
1
1
1
1
1
1
1
1
1
1
1
1
1
1
1
1
1
1
1
1
1
1
1
1
1
1
1
1
1
1
1
1
1
1
1
1
1
1
1
1
1
1
1
1
1
1
1
1
1
1
1
1
1
1
1
1
1
1
1
1
1
1
1
1
1
1
1
1
1
1
1
1
1
1
1
1
1
1
1
1
1
1
1
1
1
1
1
1
1
1
1
1
1
1
1
1
1
1
1
1
1
1
1
1
1
1
1
1
1
1
1
1
1
1
1
1
1
1
1
1
1
1
1
1
1
1
1
1
1
1
1
1
1
1
1
1
1
1
1
1
1
1
1
1
1
1
1
1
1
1
1
1
1
1
1
1
1
1
1
1
1
1
1
1
1
1
1
1
1
1
1
1
1
1
1
1
1
1
1
1
1
1
1
1
1
1
1
1
1
1
1
1
1
1
1
1
1
1
1
1
1
1
1
1
1
1
1
1
1
1
1
1
1
1
1
1
1
1
1
1
1
1
1
1
1
1
1
1
1
1
1
1
1
1
1
1
1
1
1
1
1
1
1
1
1
1
1
1
1
1
1
1
1
1
1
1
1
1
1
1
1
1
1
1
1
1
1
1
1
1
1
1
1
1
1
1
1
1
1
1
1
1
1
1
1
1
1
1
1
1
1
1
1
1
1
1
1
1
1
1
1
1
1
1
1
1
1
1
1
1
1
1
1
1
1
1
1
1
1
1
1
1
1
1
1
1
1
1
1
1
1
1
1
1
1
1
1
1
1
1
1
1
1
1
1
1
1
1
1
1
1
1
1
1
1
1
1
1
1
1
1
1
1
1
1
1
1
1
1
1
1
1
1
1
1
1
1
1
1
1
1
1
1
1
1
1
1
1
1
1
1
1
1
1
1
1
1
1
1
1
1
1
1
1
1
1
1
1
1
1
1
1
1
1
1
1
1
1
1
1
1
1
1
1
1
1
1
1
1
1
1
1
1
1
1
1
1
1
1
1
1
1
1
1
1
1
1
1
1
1
1
1
1
1
1
1
1
1
1
1
1
1
1
1
1
1
1
1
1
1
1
1
1
1
1
1
1
1
1
1
1
1
1
1
1
1
1
1
1
1
1
1
1
1
1
1
1
1
1
1
1
1
1
1
1
1
1
1
1
1
1
1
1
1
1
1
1
1
1
1
1
1
1
1
1
1
1
1
1
1
1
1
1
1
1
1
1
1
1
1
1
1
1
1
1
1
1
1
1
1
1
1
1
1
1
1
1
1
1
1
1
1
1
1
1
1
1
1
1
1
1
1
1
1
1
1
1
1
1
1
1
1
1
1
1
1
1
1
1
1
1
1
1
1
1
1
1
1
1
1
1
1
1
1
1
1
1
1
1
1
1
1
1
1
1
1
1
1
1
1
1
1
1
1
1
1
1
1
1
1
1
1
1
1
1
1
1
1
1
1
1
1
1
1
1
1
1
1
1
1
1
1
1
1
1
1
1
1
1
1
1
1
1
1
1
1
1
1
1
1
1
1
1
1
1
1
1
1
1
1
1
1
1
1
1
1
1
1
1
1
1
1
1
1
1
1
1
1
1
1
1
1
1
1
1
1
1
1
1
1
1
1
1
1
1
1
1
1
1
1
1
1
1
1
1
1
1
1
1
1
1
1
1
1
1
1
1
1
1
1
1
1
1
1
1
1
1
1
1
1
1
1
1
1
1
1
1
1
1
1
1
1
1
1
1
1
1
1
1
1
1
1
1
1
1
1
1
1
1
1
1
1
1
1
1
1
1
1
1
1
1
1
1
1
1
1
1
1
1
1
1
1
1
1
1
1
1
1
1
1
1
1
1
1
1
1
1
1
1
1
1
1
1
1
1
1
1
1
1
1
1
1
1
1
1
1
1
1
1
1
1
1
1
1
1
1
1
1
1
1
1
1
1
1
1
1
1
1
1
1
1
1
1
1
1
1
1
1
1
1
1
1
1
1
1
1
1
1
1
1
1
1
1
1
1
1
1
1
1
1
1
1
1
1
1
1
1
1
1
1
1
1
1
1
1
1
1
1
1
1
1
1
1
1
1
1
1
1
1
1
1
1
1
1
1
1
1
1
1
1
1
1
1
1
1
1
1
1
1
1
1
1
1
1
1
1
1
1
1
1
1
1
1
1
1
1
1
1
1
1
1
1
1
1
1
1
1
1
1
1
1
1
1
1
1
1
1
1
1
1
1
1
1
1
1
1
1
1
1
1
1
1
1
1
1
1
1
1
1
1
1
1
1
1
1
1
1
1
1
1
1
1
1
1
1
1
1
1
1
1
1
1
1
1
1
1
1
1
1
1
1
1
1
1
1
1
1
1
1
1
1
1
1
1
1
1
1
1
1
1
1
1
1
1
1
1
1
1
1
1
1
1
1
1
1
1
1
1
1
1
1
1
1
1
1
1
1
1
1
1
1
1
1
1
1
1
1
1
1
1
1
1
1
1
1
1
1
1
1
1
1
1
1
1
1
1
1
1
1
1
1
1
1
1
1
1
1
1
1
1
1
1
1
1
1
1
1
1
1
1
1
1
1
1
1
1
1
1
1
1
1
1
1
1
1
1
1
1
1
1
1
1
1
1
1
1
1
1
1
1
1
1
1
1
1
1
1
1
1
1
1
1
1
1
1
1
1
1
1
1
1
1
1
1
1
1
1
1
1
1
1
1
1
1
1
1
1
1
1
1
1
1
1
1
1
1
1
1
1
1
1
1
1
1
1
1
1
1
1
1
1
1
1
1
1
1
1
1
1
1
1
1
1
1
1
1
1
1
1
1
1
1
1
1
1
1
1
1
1
1
1
1
1
1
1
1
1
1
1
1
1
1
1
1
1
1
1
1
1
1
1
1
1
1
1
1
1
1
1
1
1
1
1
1
1
1
1
1
1
1
1
1
1
1
1
1
1
1
1
1
1
1
1
1
1
1
1
1
1
1
1
1
1
1
1
1
1
1
1
1
1
1
1
1
1
1
1
1
1
1
1
1
1
1
1
1
1
1
1
1
1
1
1
1
1
1
1
1
1
1
1
1
1
1
1
1
1
1
1
1
1
1
1
1
1
1
1
1
1
1
1
1
1
1
1
1
1
1
1
1
1
1
1
1
1
1
1
1
1
1
1
1
1
1
1
1
1
1
1
1
1
1
1
1
1
1
1
1
1
1
1
1
1
1
1
1
1
1
1
1
1
1
1
1
1
1
1
1
1
1
1
1
1
1
1
1
1
1
1
1
1
1
1
1
1
1
1
1
1
1
1
1
1
1
1
1
1
1
1
1
1
1
1
1
1
1
1
1
1
1
1
1
1
1
1
1
1
1
1
1
1
1
1
1
1
1
1
1
1
1
1
1
1
1
1
1
1
1
1
1
1
1
1
1
1
1
1
1
1
1
1
1
1
1
1
1
1
1
1
1
1
1
1
1
1
1
1
1
1
1
1
1
1
1
1
1
1
1
1
1
1
1
1
1
1
1
1
1
1
1
1
1
1
1
1
1
1
1
1
1
1
1
1
1
1
1
1
1
1
1
1
1
1
1
1
1
1
1
1
1
1
1
1
1
1
1
1
1
1
1
1
1
1
1
1
1
1
1
1
1
1
1
1
1
1
1
1
1
1
1
1
1
1
1
1
1
1
1
1
1
1
1
1
1
1
1
1
1
1
1
1
1
1
1
1
1
1
1
1
1
1
1
1
1
1
1
1
1
1
1
1
1
1
1
1
1
1
1
1
1
1
1
1
1
1
1
1
1
1
1
1
1
1
1
1
1
1
1
1
1
1
1
1
1
1
1
1
1
1
1
1
1
1
1
1
1
1
1
1
1
1
1
1
1
1
1
1
1
1
1
1
1
1
1
1
1
1
1
1
1
1
1
1
1
1
1
1
1
1
1
1
1
1
1
1
1
1
1
1
1
1
1
1
1
1
1
1
1
1
1
1
1
1
1
1
1
1
1
1
1
1
1
1
1
1
1
1
1
1
1
1
1
1
1
1
1
1
1
1
1
1
1
1
1
1
1
1
1
1
1
1
1
1
1
1
1
1
1
1
1
1
1
1
1
1
1
1
1
1
1
1
1
1
1
1
1
1
1
1
1
1
1
1
1
1
1
1
1
1
1
1
1
1
1
1
1
1
1
1
1
1
1
1
1
1
1
1
1
1
1
1
1
1
1
1
1
1
1
1
1
1
1
1
1
1
1
1
1
1
1
1
1
1
1
1
1
1
1
1
1
1
1
1
1
1
1
1
1
1
1
1
1
1
1
1
1
1
1
1
1
1
1
1
1
1
1
1
1
1
1
1
1
1
1
1
1
1
1
1
1
1
1
1
1
1
1
1
1
1
1
1
1
1
1
1
1
1
1
1
1
1
1
1
1
1
1
1
1
1
1
1
1
1
1
1
1
1
1
1
1
1
1
1
1
1
1
1
1
1
1
1
1
1
1
1
1
1
1
1
1
1
1
1
1
1
1
1
1
1
1
1
1
1
1
1
1
1
1
1
1
1
1
1
1
1
1
1
1
1
1
1
1
1
1
1
1
1
1
1
1
1
1
1
1
1
1
1
1
1
1
1
1
1
1
1
1
1
1
1
1
1
1
1
1
1
1
1
1
1
1
1
1
1
1
1
1
1
1
1
1
1
1
1
1
1
1
1
1
1
1
1
1
1
1
1
1
1
1
1
1
1
1
1
1
1
1
1
1
1
1
1
1
1
1
1
1
1
1
1
1
1
1
1
1
1
1
1
1
1
1
1
1
1
1
1
1
1
1
1
1
1
1
1
1
1
1
1
1
1
1
1
1
1
1
1
1
1
1
1
1
1
1
1
1
1
1
1
1
1
1
1
1
1
1
1
1
1
1
1
1
1
1
1
1
1
1
1
1
1
1
1
1
1
1
1
1
1
1
1
1
1
1
1
1
1
1
1
1
1
1
1
1
1
1
1
1
1
1
1
1
1
1
1
1
1
1
1
1
1
1
1
1
1
1
1
1
1
1
1
1
1
1
1
1
1
1
1
1
1
1
1
1
1
1
1
1
1
1
1
1
1
1
1
1
1
1
1
1
1
1
1
1
1
1
1
1
1
1
1
1
1
1
1
1
1
1
1
1
1
1
1
1
1
1
1
1
1
1
1
1
1
1
1
1
1
1
1
1
1
1
1
1
1
1
1
1
1
1
1
1
1
1
1
1
1
1
1
1
1
1
1
1
1
1
1
1
1
1
1
1
1
1
1
1
1
1
1
1
1
1
1
1
1
1
1
1
1
1
1
1
1
1
1
1
1
1
1
1
1
1
1
1
1
1
1
1
1
1
1
1
1
1
1
1
1
1
1
1
1
1
1
1
1
1
1
1
1
1
1
1
1
1
1
1
1
1
1
1
1
1
1
1
1
1
1
1
1
1
1
1
1
1
1
1
1
1
1
1
1
1
1
1
1
1
1
1
1
1
1
1
1
1
1
1
1
1
1
1
1
1
1
1
1
1
1
1
1
1
1
1
1
1
1
1
1
1
1
1
1
1
1
1
1
1
1
1
1
1
1
1
1
1
1
1
1
1
1
1
1
1
1
1
1
1
1
1
1
1
1
1
1
1
1
1
1
1
1
1
1
1
1
1
1
1
1
1
1
1
1
1
1
1
1
1
1
1
1
1
1
1
1
1
1
1
1
1
1
1
1
1
1
1
1
1
1
1
1
1
1
1
1
1
1
1
1
1
1
1
1
1
1
1
1
1
1
1
1
1
1
1
1
1
1
1
1
1
1
1
1
1
1
1
1
1
1
1
1
1
1
1
1
1
1
1
1
1
1
1
1
1
1
1
1
1
1
1
1
1
1
1
1
1
1
1
1
1
1
1
1
1
1
1
1
1
1
1
1
1
1
1
1
1
1
1
1
1
1
1
1
1
1
1
1
1
1
1
1
1
1
1
1
1
1
1
1
1
1
1
1
1
1
1
1
1
1
1
VECTORS v double
-1.1648699 -1.1648699 -1.1648699
-2.4187886 -1.1648699 -1.1648699
-3.6665037 -1.1648699 -1.1648699
-4.9142236 -1.1648699 -1.1648699
-6.1619484 -1.1648699 -1.1648699
-7.4096442 -1.1648699 -1.1648699
-8.6573883 -1.1648699 -1.1648699
-9.9050841 -1.1648699 -1.1648699
-11.152828 -1.1648699 -1.1648699
-12.400524 -1.1648699 -1.1648699
-13.648268 -1.1648699 -1.1648699
-14.895964 -1.1648699 -1.1648699
-16.143708 -1.1648699 -1.1648699
-17.391404 -1.1648699 -1.1648699
-18.639148 -1.1648699 -1.1648699
-19.886844 -1.1648699 -1.1648699
-21.134588 -1.1648699 -1.1648699
-22.382284 -1.1648699 -1.1648699
-23.630028 -1.1648699 -1.1648699
-24.883922 -1.1648699 -1.1648699
-1.1648699 -2.4187886 -1.1648699
-2.4187886 -2.4187886 -1.1648699
-3.6665037 -2.4187886 -1.1648699
-4.9142236 -2.4187886 -1.1648699
-6.1619484 -2.4187886 -1.1648699
-7.4096442 -2.4187886 -1.1648699
-8.6573883 -2.4187886 -1.1648699
-9.9050841 -2.4187886 -1.1648699
-11.152828 -2.4187886 -1.1648699
-12.400524 -2.4187886 -1.1648699
-13.648268 -2.4187886 -1.1648699
-14.895964 -2.4187886 -1.1648699
-16.143708 -2.4187886 -1.1648699
-17.391404 -2.4187886 -1.1648699
-18.639148 -2.4187886 -1.1648699
-19.886844 -2.4187886 -1.1648699
-21.134588 -2.4187886 -1.1648699
-22.382284 -2.4187886 -1.1648699
-23.630028 -2.4187886 -1.1648699
-24.883922 -2.4187886 -1.1648699
-1.1648699 -3.6665037 -1.1648699
-2.4187886 -3.6665037 -1.1648699
-3.6665037 -3.6665037 -1.1648699
-4.9142236 -3.6665037 -1.1648699
-6.1619484 -3.6665037 -1.1648699
-7.4096442 -3.6665037 -1.1648699
-8.6573883 -3.6665037 -1.1648699
-9.9050841 -3.6665037 -1.1648699
-11.152828 -3.6665037 -1.1648699
-12.400524 -3.6665037 -1.1648699
-13.648268 -3.6665037 -1.1648699
-14.895964 -3.6665037 -1.1648699
-16.143708 -3.6665037 -1.1648699
-17.391404 -3.6665037 -1.1648699
-18.639148 -3.6665037 -1.1648699
-19.886844 -3.6665037 -1.1648699
-21.134588 -3.6665037 -1.1648699
-22.382284 -3.6665037 -1.1648699
-23.630028 -3.6665037 -1.1648699
-24.883922 -3.6665037 -1.1648699
-1.1648699 -4.9142236 -1.1648699
-2.4187886 -4.9142236 -1.1648699
-3.6665037 -4.9142236 -1.1648699
-4.9142236 -4.9142236 -1.1648699
-6.1619484 -4.9142236 -1.1648699
-7.4096442 -4.9142236 -1.1648699
-8.6573883 -4.9142236 -1.1648699
-9.9050841 -4.9142236 -1.1648699
-11.152828 -4.9142236 -1.1648699
-12.400524 -4.9142236 -1.1648699
-13.648268 -4.9142236 -1.1648699
-14.895964 -4.9142236 -1.1648699
-16.143708 -4.9142236 -1.1648699
-17.391404 -4.9142236 -1.1648699
-18.639148 -4.9142236 -1.1648699
-19.886844 -4.9142236 -1.1648699
-21.134588 -4.9142236 -1.1648699
-22.382284 -4.9142236 -1.1648699
-23.630028 -4.9142236 -1.1648699
-24.883922 -4.9142236 -1.1648699
-1.1648699 -6.1619484 -1.1648699
-2.4187886 -6.1619484 -1.1648699
-3.6665037 -6.1619484 -1.1648699
-4.9142236 -6.1619484 -1.1648699
-6.1619484 -6.1619484 -1.1648699
-7.4096442 -6.1619484 -1.1648699
-8.6573883 -6.1619484 -1.1648699
-9.9050841 -6.1619484 -1.1648699
-11.152828 -6.1619484 -1.1648699
-12.400524 -6.1619484 -1.1648699
-13.648268 -6.1619484 -1.1648699
-14.895964 -6.1619484 -1.1648699
-16.143708 -6.1619484 -1.1648699
-17.391404 -6.1619484 -1.1648699
-18.639148 -6.1619484 -1.1648699
-19.886844 -6.1619484 -1.1648699
-21.134588 -6.1619484 -1.1648699
-22.382284 -6.1619484 -1.1648699
-23.630028 -6.1619484 -1.1648699
-24.883922 -6.1619484 -1.1648699
-1.1648699 -7.4096442 -1.1648699
-2.4187886 -7.4096442 -1.1648699
-3.6665037 -7.4096442 -1.1648699
-4.9142236 -7.4096442 -1.1648699
-6.1619484 -7.4096442 -1.1648699
-7.4096442 -7.4096442 -1.1648699
-8.6573883 -7.4096442 -1.1648699
-9.9050841 -7.4096442 -1.1648699
-11.152828 -7.4096442 -1.1648699
-12.400524 -7.4096442 -1.1648699
-13.648268 -7.4096442 -1.1648699
-14.895964 -7.4096442 -1.1648699
-16.143708 -7.4096442 -1.1648699
-17.391404 -7.4096442 -1.1648699
-18.639148 -7.4096442 -1.1648699
-19.886844 -7.4096442 -1.1648699
-21.134588 -7.4096442 -1.1648699
-22.382284 -7.4096442 -1.1648699
-23.630028 -7.4096442 -1.1648699
-24.883922 -7.4096442 -1.1648699
-1.1648699 -8.6573883 -1.1648699
-2.4187886 -8.6573883 -1.1648699
-3.6665037 -8.6573883 -1.1648699
-4.9142236 -8.6573883 -1.1648699
-6.1619484 -8.6573883 -1.1648699
-7.4096442 -8.6573883 -1.1648699
-8.6573883 -8.6573883 -1.1648699
-9.9050841 -8.6573883 -1.1648699
-11.152828 -8.6573883 -1.1648699
-12.400524 -8.6573883 -1.1648699
-13.648268 -8.6573883 -1.1648699
-14.895964 -8.6573883 -1.1648699
-16.143708 -8.6573883 -1.1648699
-17.391404 -8.6573883 -1.1648699
-18.639148 -8.6573883 -1.1648699
-19.886844 -8.6573883 -1.1648699
-21.134588 -8.6573883 -1.1648699
-22.382284 -8.6573883 -1.1648699
-23.630028 -8.6573883 -1.1648699
-24.883922 -8.6573883 -1.1648699
-1.1648699 -9.9050841 -1.1648699
-2.4187886 -9.9050841 -1.1648699
-3.6665037 -9.9050841 -1.1648699
-4.9142236 -9.9050841 -1.1648699
-6.1619484 -9.9050841 -1.1648699
-7.4096442 -9.9050841 -1.1648699
-8.6573883 -9.9050841 -1.1648699
-9.9050841 -9.9050841 -1.1648699
-11.152828 -9.9050841 -1.1648699
-12.400524 -9.9050841 -1.1648699
-13.648268 -9.9050841 -1.1648699
-14.895964 -9.9050841 -1.1648699
-16.143708 -9.9050841 -1.1648699
-17.391404 -9.9050841 -1.1648699
-18.639148 -9.9050841 -1.1648699
-19.886844 -9.9050841 -1.1648699
-21.134588 -9.9050841 -1.1648699
-22.382284 -9.9050841 -1.1648699
-23.630028 -9.9050841 -1.1648699
-24.883922 -9.9050841 -1.1648699
-1.1648699 -11.152828 -1.1648699
-2.4187886 -11.152828 -1.1648699
-3.6665037 -11.152828 -1.1648699
-4.9142236 -11.152828 -1.1648699
-6.1619484 -11.152828 -1.1648699
-7.4096442 -11.152828 -1.1648699
-8.6573883 -11.152828 -1.1648699
-9.9050841 -11.152828 -1.1648699
-11.152828 -11.152828 -1.1648699
-12.400524 -11.152828 -1.1648699
-13.648268 -11.152828 -1.1648699
-14.895964 -11.152828 -1.1648699
-16.143708 -11.152828 -1.1648699
-17.391404 -11.152828 -1.1648699
-18.639148 -11.152828 -1.1648699
-19.886844 -11.152828 -1.1648699
-21.134588 -11.152828 -1.1648699
-22.382284 -11.152828 -1.1648699
-23.630028 -11.152828 -1.1648699
-24.883922 -11.152828 -1.1648699
-1.1648699 -12.400524 -1.1648699
-2.4187886 -12.400524 -1.1648699
-3.6665037 -12.400524 -1.1648699
-4.9142236 -12.400524 -1.1648699
-6.1619484 -12.400524 -1.1648699
-7.4096442 -12.400524 -1.1648699
-8.6573883 -12.400524 -1.1648699
-9.9050841 -12.400524 -1.1648699
-11.152828 -12.400524 -1.1648699
-12.400524 -12.400524 -1.1648699
-13.648268 -12.400524 -1.1648699
-14.895964 -12.400524 -1.1648699
-16.143708 -12.400524 -1.1648699
-17.391404 -12.400524 -1.1648699
-18.639148 -12.400524 -1.1648699
-19.886844 -12.400524 -1.1648699
-21.134588 -12.400524 -1.1648699
-22.382284 -12.400524 -1.1648699
-23.630028 -12.400524 -1.1648699
-24.883922 -12.400524 -1.1648699
-1.1648699 -13.648268 -1.1648699
-2.4187886 -13.648268 -1.1648699
-3.6665037 -13.648268 -1.1648699
-4.9142236 -13.648268 -1.1648699
-6.1619484 -13.648268 -1.1648699
-7.4096442 -13.648268 -1.1648699
-8.6573883 -13.648268 -1.1648699
-9.9050841 -13.648268 -1.1648699
-11.152828 -13.648268 -1.1648699
-12.400524 -13.648268 -1.1648699
-13.648268 -13.648268 -1.1648699
-14.895964 -13.648268 -1.1648699
-16.143708 -13.648268 -1.1648699
-17.391404 -13.648268 -1.1648699
-18.639148 -13.648268 -1.1648699
-19.886844 -13.648268 -1.1648699
-21.134588 -13.648268 -1.1648699
-22.382284 -13.648268 -1.1648699
-23.630028 -13.648268 -1.1648699
-24.883922 -13.648268 -1.1648699
-1.1648699 -14.895964 -1.1648699
-2.4187886 -14.895964 -1.1648699
-3.6665037 -14.895964 -1.1648699
-4.9142236 -14.895964 -1.1648699
-6.1619484 -14.895964 -1.1648699
-7.4096442 -14.895964 -1.1648699
-8.6573883 -14.895964 -1.1648699
-9.9050841 -14.895964 -1.1648699
-11.152828 -14.895964 -1.1648699
-12.400524 -14.895964 -1.1648699
-13.648268 -14.895964 -1.1648699
-14.895964 -14.895964 -1.1648699
-16.143708 -14.895964 -1.1648699
-17.391404 -14.895964 -1.1648699
-18.639148 -14.895964 -1.1648699
-19.886844 -14.895964 -1.1648699
-21.134588 -14.895964 -1.1648699
-22.382284 -14.895964 -1.1648699
-23.630028 -14.895964 -1.1648699
-24.883922 -14.895964 -1.1648699
-1.1648699 -16.143708 -1.1648699
-2.4187886 -16.143708 -1.1648699
-3.6665037 -16.143708 -1.1648699
-4.9142236 -16.143708 -1.1648699
-6.1619484 -16.143708 -1.1648699
-7.4096442 -16.143708 -1.1648699
-8.6573883 -16.143708 -1.1648699
-9.9050841 -16.143708 -1.1648699
-11.152828 -16.143708 -1.1648699
-12.400524 -16.143708 -1.1648699
-13.648268 -16.143708 -1.1648699
-14.895964 -16.143708 -1.1648699
-16.143708 -16.143708 -1.1648699
-17.391404 -16.143708 -1.1648699
-18.639148 -16.143708 -1.1648699
-19.886844 -16.143708 -1.1648699
-21.134588 -16.143708 -1.1648699
-22.382284 -16.143708 -1.1648699
-23.630028 -16.143708 -1.1648699
-24.883922 -16.143708 -1.1648699
-1.1648699 -17.391404 -1.1648699
-2.4187886 -17.391404 -1.1648699
-3.6665037 -17.391404 -1.1648699
-4.9142236 -17.391404 -1.1648699
-6.1619484 -17.391404 -1.1648699
-7.4096442 -17.391404 -1.1648699
-8.6573883 -17.391404 -1.1648699
-9.9050841 -17.391404 -1.1648699
-11.152828 -17.391404 -1.1648699
-12.400524 -17.391404 -1.1648699
-13.648268 -17.391404 -1.1648699
-14.895964 -17.391404 -1.1648699
-16.143708 -17.391404 -1.1648699
-17.391404 -17.391404 -1.1648699
-18.639148 -17.391404 -1.1648699
-19.886844 -17.391404 -1.1648699
-21.134588 -17.391404 -1.1648699
-22.382284 -17.391404 -1.1648699
-23.630028 -17.391404 -1.1648699
-24.883922 -17.391404 -1.1648699
-1.1648699 -18.639148 -1.1648699
-2.4187886 -18.639148 -1.1648699
-3.6665037 -18.639148 -1.1648699
-4.9142236 -18.639148 -1.1648699
-6.1619484 -18.639148 -1.1648699
-7.4096442 -18.639148 -1.1648699
-8.6573883 -18.639148 -1.1648699
-9.9050841 -18.639148 -1.1648699
-11.152828 -18.639148 -1.1648699
-12.400524 -18.639148 -1.1648699
-13.648268 -18.639148 -1.1648699
-14.895964 -18.639148 -1.1648699
-16.143708 -18.639148 -1.1648699
-17.391404 -18.639148 -1.1648699
-18.639148 -18.639148 -1.1648699
-19.886844 -18.639148 -1.1648699
-21.134588 -18.639148 -1.1648699
-22.382284 -18.639148 -1.1648699
-23.630028 -18.639148 -1.1648699
-24.883922 -18.639148 -1.1648699
-1.1648699 -19.886844 -1.1648699
-2.4187886 -19.886844 -1.1648699
-3.6665037 -19.886844 -1.1648699
-4.9142236 -19.886844 -1.1648699
-6.1619484 -19.886844 -1.1648699
-7.4096442 -19.886844 -1.1648699
-8.6573883 -19.886844 -1.1648699
-9.9050841 -19.886844 -1.1648699
-11.152828 -19.886844 -1.1648699
-12.400524 -19.886844 -1.1648699
-13.648268 -19.886844 -1.1648699
-14.895964 -19.886844 -1.1648699
-16.143708 -19.886844 -1.1648699
-17.391404 -19.886844 -1.1648699
-18.639148 -19.886844 -1.1648699
-19.886844 -19.886844 -1.1648699
-21.134588 -19.886844 -1.1648699
-22.382284 -19.886844 -1.1648699
-23.630028 -19.886844 -1.1648699
-24.883922 -19.886844 -1.1648699
-1.1648699 -21.134588 -1.1648699
-2.4187886 -21.134588 -1.1648699
-3.6665037 -21.134588 -1.1648699
-4.9142236 -21.134588 -1.1648699
-6.1619484 -21.134588 -1.1648699
-7.4096442 -21.134588 -1.1648699
-8.6573883 -21.134588 -1.1648699
-9.9050841 -21.134588 -1.1648699
-11.152828 -21.134588 -1.1648699
-12.400524 -21.134588 -1.1648699
-13.648268 -21.134588 -1.1648699
-14.895964 -21.134588 -1.1648699
-16.143708 -21.134588 -1.1648699
-17.391404 -21.134588 -1.1648699
-18.639148 -21.134588 -1.1648699
-19.886844 -21.134588 -1.1648699
-21.134588 -21.134588 -1.1648699
-22.382284 -21.134588 -1.1648699
-23.630028 -21.134588 -1.1648699
-24.883922 -21.134588 -1.1648699
-1.1648699 -22.382284 -1.1648699
-2.4187886 -22.382284 -1.1648699
-3.6665037 -22.382284 -1.1648699
-4.9142236 -22.382284 -1.1648699
-6.1619484 -22.382284 -1.1648699
-7.4096442 -22.382284 -1.1648699
-8.6573883 -22.382284 -1.1648699
-9.9050841 -22.382284 -1.1648699
-11.152828 -22.382284 -1.1648699
-12.400524 -22.382284 -1.1648699
-13.648268 -22.382284 -1.1648699
-14.895964 -22.382284 -1.1648699
-16.143708 -22.382284 -1.1648699
-17.391404 -22.382284 -1.1648699
-18.639148 -22.382284 -1.1648699
-19.886844 -22.382284 -1.1648699
-21.134588 -22.382284 -1.1648699
-22.382284 -22.382284 -1.1648699
-23.630028 -22.382284 -1.1648699
-24.883922 -22.382284 -1.1648699
-1.1648699 -23.630028 -1.1648699
-2.4187886 -23.630028 -1.1648699
-3.6665037 -23.630028 -1.1648699
-4.9142236 -23.630028 -1.1648699
-6.1619484 -23.630028 -1.1648699
-7.4096442 -23.630028 -1.1648699
-8.6573883 -23.630028 -1.1648699
-9.9050841 -23.630028 -1.1648699
-11.152828 -23.630028 -1.1648699
-12.400524 -23.630028 -1.1648699
-13.648268 -23.630028 -1.1648699
-14.895964 -23.630028 -1.1648699
-16.143708 -23.630028 -1.1648699
-17.391404 -23.630028 -1.1648699
-18.639148 -23.630028 -1.1648699
-19.886844 -23.630028 -1.1648699
-21.134588 -23.630028 -1.1648699
-22.382284 -23.630028 -1.1648699
-23.630028 -23.630028 -1.1648699
-24.883922 -23.630028 -1.1648699
-1.1648699 -24.883922 -1.1648699
-2.4187886 -24.883922 -1.1648699
-3.6665037 -24.883922 -1.1648699
-4.9142236 -24.883922 -1.1648699
-6.1619484 -24.883922 -1.1648699
-7.4096442 -24.883922 -1.1648699
-8.6573883 -24.883922 -1.1648699
-9.9050841 -24.883922 -1.1648699
-11.152828 -24.883922 -1.1648699
-12.400524 -24.883922 -1.1648699
-13.648268 -24.883922 -1.1648699
-14.895964 -24.883922 -1.1648699
-16.143708 -24.883922 -1.1648699
-17.391404 -24.883922 -1.1648699
-18.639148 -24.883922 -1.1648699
-19.886844 -24.883922 -1.1648699
-21.134588 -24.883922 -1.1648699
-22.382284 -24.883922 -1.1648699
-23.630028 -24.883922 -1.1648699
-24.883922 -24.883922 -1.1648699
-1.1648699 -1.1648699 -2.4187886
-2.4187886 -1.1648699 -2.4187886
-3.6665037 -1.1648699 -2.4187886
-4.9142236 -1.1648699 -2.4187886
-6.1619484 -1.1648699 -2.4187886
-7.4096442 -1.1648699 -2.4187886
-8.6573883 -1.1648699 -2.4187886
-9.9050841 -1.1648699 -2.4187886
-11.152828 -1.1648699 -2.4187886
-12.400524 -1.1648699 -2.4187886
-13.648268 -1.1648699 -2.4187886
-14.895964 -1.1648699 -2.4187886
-16.143708 -1.1648699 -2.4187886
-17.391404 -1.1648699 -2.4187886
-18.639148 -1.1648699 -2.4187886
-19.886844 -1.1648699 -2.4187886
-21.134588 -1.1648699 -2.4187886
-22.382284 -1.1648699 -2.4187886
-23.630028 -1.1648699 -2.4187886
-24.883922 -1.1648699 -2.4187886
-1.1648699 -2.4187886 -2.4187886
-2.4187886 -2.4187886 -2.4187886