# vtk DataFile Version 4.0
hesp visualization file
ASCII
DATASET UNSTRUCTURED_GRID
POINTS 3000 double
1.2102585 1.2102585 1.2102585
3.07895 1.2102585 1.2102585
5.65789 1.2102585 1.2102585
8.23684 1.2102585 1.2102585
10.8158 1.2102585 1.2102585
13.3947 1.2102585 1.2102585
15.9737 1.2102585 1.2102585
18.5526 1.2102585 1.2102585
21.1316 1.2102585 1.2102585
23.7105 1.2102585 1.2102585
26.2895 1.2102585 1.2102585
28.8684 1.2102585 1.2102585
31.4474 1.2102585 1.2102585
34.0263 1.2102585 1.2102585
36.6053 1.2102585 1.2102585
39.1842 1.2102585 1.2102585
41.7632 1.2102585 1.2102585
44.3421 1.2102585 1.2102585
46.9211 1.2102585 1.2102585
48.789741 1.2102585 1.2102585
1.2102585 3.07895 1.2102585
3.07895 3.07895 1.2102585
5.65789 3.07895 1.2102585
8.23684 3.07895 1.2102585
10.8158 3.07895 1.2102585
13.3947 3.07895 1.2102585
15.9737 3.07895 1.2102585
18.5526 3.07895 1.2102585
21.1316 3.07895 1.2102585
23.7105 3.07895 1.2102585
26.2895 3.07895 1.2102585
28.8684 3.07895 1.2102585
31.4474 3.07895 1.2102585
34.0263 3.07895 1.2102585
36.6053 3.07895 1.2102585
39.1842 3.07895 1.2102585
41.7632 3.07895 1.2102585
44.3421 3.07895 1.2102585
46.9211 3.07895 1.2102585
48.789741 3.07895 1.2102585
1.2102585 5.65789 1.2102585
3.07895 5.65789 1.2102585
5.65789 5.65789 1.2102585
8.23684 5.65789 1.2102585
10.8158 5.65789 1.2102585
13.3947 5.65789 1.2102585
15.9737 5.65789 1.2102585
18.5526 5.65789 1.2102585
21.1316 5.65789 1.2102585
23.7105 5.65789 1.2102585
26.2895 5.65789 1.2102585
28.8684 5.65789 1.2102585
31.4474 5.65789 1.2102585
34.0263 5.65789 1.2102585
36.6053 5.65789 1.2102585
39.1842 5.65789 1.2102585
41.7632 5.65789 1.2102585
44.3421 5.65789 1.2102585
46.9211 5.65789 1.2102585
48.789741 5.65789 1.2102585
1.2102585 8.23684 1.2102585
3.07895 8.23684 1.2102585
5.65789 8.23684 1.2102585
8.23684 8.23684 1.2102585
10.8158 8.23684 1.2102585
13.3947 8.23684 1.2102585
15.9737 8.23684 1.2102585
18.5526 8.23684 1.2102585
21.1316 8.23684 1.2102585
23.7105 8.23684 1.2102585
26.2895 8.23684 1.2102585
28.8684 8.23684 1.2102585
31.4474 8.23684 1.2102585
34.0263 8.23684 1.2102585
36.6053 8.23684 1.2102585
39.1842 8.23684 1.2102585
41.7632 8.23684 1.2102585
44.3421 8.23684 1.2102585
46.9211 8.23684 1.2102585
48.789741 8.23684 1.2102585
1.2102585 10.8158 1.2102585
3.07895 10.8158 1.2102585
5.65789 10.8158 1.2102585
8.23684 10.8158 1.2102585
10.8158 10.8158 1.2102585
13.3947 10.8158 1.2102585
15.9737 10.8158 1.2102585
18.5526 10.8158 1.2102585
21.1316 10.8158 1.2102585
23.7105 10.8158 1.2102585
26.2895 10.8158 1.2102585
28.8684 10.8158 1.2102585
31.4474 10.8158 1.2102585
34.0263 10.8158 1.2102585
36.6053 10.8158 1.2102585
39.1842 10.8158 1.2102585
41.7632 10.8158 1.2102585
44.3421 10.8158 1.2102585
46.9211 10.8158 1.2102585
48.789741 10.8158 1.2102585
1.2102585 13.3947 1.2102585
3.07895 13.3947 1.2102585
5.65789 13.3947 1.2102585
8.23684 13.3947 1.2102585
10.8158 13.3947 1.2102585
13.3947 13.3947 1.2102585
15.9737 13.3947 1.2102585
18.5526 13.3947 1.2102585
21.1316 13.3947 1.2102585
23.7105 13.3947 1.2102585
26.2895 13.3947 1.2102585
28.8684 13.3947 1.2102585
31.4474 13.3947 1.2102585
34.0263 13.3947 1.2102585
36.6053 13.3947 1.2102585
39.1842 13.3947 1.2102585
41.7632 13.3947 1.2102585
44.3421 13.3947 1.2102585
46.9211 13.3947 1.2102585
48.789741 13.3947 1.2102585
1.2102585 15.9737 1.2102585
3.07895 15.9737 1.2102585
5.65789 15.9737 1.2102585
8.23684 15.9737 1.2102585
10.8158 15.9737 1.2102585
13.3947 15.9737 1.2102585
15.9737 15.9737 1.2102585
18.5526 15.9737 1.2102585
21.1316 15.9737 1.2102585
23.7105 15.9737 1.2102585
26.2895 15.9737 1.2102585
28.8684 15.9737 1.2102585
31.4474 15.9737 1.2102585
34.0263 15.9737 1.2102585
36.6053 15.9737 1.2102585
39.1842 15.9737 1.2102585
41.7632 15.9737 1.2102585
44.3421 15.9737 1.2102585
46.9211 15.9737 1.2102585
48.789741 15.9737 1.2102585
1.2102585 18.5526 1.2102585
3.07895 18.5526 1.2102585
5.65789 18.5526 1.2102585
8.23684 18.5526 1.2102585
10.8158 18.5526 1.2102585
13.3947 18.5526 1.2102585
15.9737 18.5526 1.2102585
18.5526 18.5526 1.2102585
21.1316 18.5526 1.2102585
23.7105 18.5526 1.2102585
26.2895 18.5526 1.2102585
28.8684 18.5526 1.2102585
31.4474 18.5526 1.2102585
34.0263 18.5526 1.2102585
36.6053 18.5526 1.2102585
39.1842 18.5526 1.2102585
41.7632 18.5526 1.2102585
44.3421 18.5526 1.2102585
46.9211 18.5526 1.2102585
48.789741 18.5526 1.2102585
1.2102585 21.1316 1.2102585
3.07895 21.1316 1.2102585
5.65789 21.1316 1.2102585
8.23684 21.1316 1.2102585
10.8158 21.1316 1.2102585
13.3947 21.1316 1.2102585
15.9737 21.1316 1.2102585
18.5526 21.1316 1.2102585
21.1316 21.1316 1.2102585
23.7105 21.1316 1.2102585
26.2895 21.1316 1.2102585
28.8684 21.1316 1.2102585
31.4474 21.1316 1.2102585
34.0263 21.1316 1.2102585
36.6053 21.1316 1.2102585
39.1842 21.1316 1.2102585
41.7632 21.1316 1.2102585
44.3421 21.1316 1.2102585
46.9211 21.1316 1.2102585
48.789741 21.1316 1.2102585
1.2102585 23.7105 1.2102585
3.07895 23.7105 1.2102585
5.65789 23.7105 1.2102585
8.23684 23.7105 1.2102585
10.8158 23.7105 1.2102585
13.3947 23.7105 1.2102585
15.9737 23.7105 1.2102585
18.5526 23.7105 1.2102585
21.1316 23.7105 1.2102585
23.7105 23.7105 1.2102585
26.2895 23.7105 1.2102585
28.8684 23.7105 1.2102585
31.4474 23.7105 1.2102585
34.0263 23.7105 1.2102585
36.6053 23.7105 1.2102585
39.1842 23.7105 1.2102585
41.7632 23.7105 1.2102585
44.3421 23.7105 1.2102585
46.9211 23.7105 1.2102585
48.789741 23.7105 1.2102585
1.2102585 26.2895 1.2102585
3.07895 26.2895 1.2102585
5.65789 26.2895 1.2102585
8.23684 26.2895 1.2102585
10.8158 26.2895 1.2102585
13.3947 26.2895 1.2102585
15.9737 26.2895 1.2102585
18.5526 26.2895 1.2102585
21.1316 26.2895 1.2102585
23.7105 26.2895 1.2102585
26.2895 26.2895 1.2102585
28.8684 26.2895 1.2102585
31.4474 26.2895 1.2102585
34.0263 26.2895 1.2102585
36.6053 26.2895 1.2102585
39.1842 26.2895 1.2102585
41.7632 26.2895 1.2102585
44.3421 26.2895 1.2102585
46.9211 26.2895 1.2102585
48.789741 26.2895 1.2102585
1.2102585 28.8684 1.2102585
3.07895 28.8684 1.2102585
5.65789 28.8684 1.2102585
8.23684 28.8684 1.2102585
10.8158 28.8684 1.2102585
13.3947 28.8684 1.2102585
15.9737 28.8684 1.2102585
18.5526 28.8684 1.2102585
21.1316 28.8684 1.2102585
23.7105 28.8684 1.2102585
26.2895 28.8684 1.2102585
28.8684 28.8684 1.2102585
31.4474 28.8684 1.2102585
34.0263 28.8684 1.2102585
36.6053 28.8684 1.2102585
39.1842 28.8684 1.2102585
41.7632 28.8684 1.2102585
44.3421 28.8684 1.2102585
46.9211 28.8684 1.2102585
48.789741 28.8684 1.2102585
1.2102585 31.4474 1.2102585
3.07895 31.4474 1.2102585
5.65789 31.4474 1.2102585
8.23684 31.4474 1.2102585
10.8158 31.4474 1.2102585
13.3947 31.4474 1.2102585
15.9737 31.4474 1.2102585
18.5526 31.4474 1.2102585
21.1316 31.4474 1.2102585
23.7105 31.4474 1.2102585
26.2895 31.4474 1.2102585
28.8684 31.4474 1.2102585
31.4474 31.4474 1.2102585
34.0263 31.4474 1.2102585
36.6053 31.4474 1.2102585
39.1842 31.4474 1.2102585
41.7632 31.4474 1.2102585
44.3421 31.4474 1.2102585
46.9211 31.4474 1.2102585
48.789741 31.4474 1.2102585
1.2102585 34.0263 1.2102585
3.07895 34.0263 1.2102585
5.65789 34.0263 1.2102585
8.23684 34.0263 1.2102585
10.8158 34.0263 1.2102585
13.3947 34.0263 1.2102585
15.9737 34.0263 1.2102585
18.5526 34.0263 1.2102585
21.1316 34.0263 1.2102585
23.7105 34.0263 1.2102585
26.2895 34.0263 1.2102585
28.8684 34.0263 1.2102585
31.4474 34.0263 1.2102585
34.0263 34.0263 1.2102585
36.6053 34.0263 1.2102585
39.1842 34.0263 1.2102585
41.7632 34.0263 1.2102585
44.3421 34.0263 1.2102585
46.9211 34.0263 1.2102585
48.789741 34.0263 1.2102585
1.2102585 36.6053 1.2102585
3.07895 36.6053 1.2102585
5.65789 36.6053 1.2102585
8.23684 36.6053 1.2102585
10.8158 36.6053 1.2102585
13.3947 36.6053 1.2102585
15.9737 36.6053 1.2102585
18.5526 36.6053 1.2102585
21.1316 36.6053 1.2102585
23.7105 36.6053 1.2102585
26.2895 36.6053 1.2102585
28.8684 36.6053 1.2102585
31.4474 36.6053 1.2102585
34.0263 36.6053 1.2102585
36.6053 36.6053 1.2102585
39.1842 36.6053 1.2102585
41.7632 36.6053 1.2102585
44.3421 36.6053 1.2102585
46.9211 36.6053 1.2102585
48.789741 36.6053 1.2102585
1.2102585 39.1842 1.2102585
3.07895 39.1842 1.2102585
5.65789 39.1842 1.2102585
8.23684 39.1842 1.2102585
10.8158 39.1842 1.2102585
13.3947 39.1842 1.2102585
15.9737 39.1842 1.2102585
18.5526 39.1842 1.2102585
21.1316 39.1842 1.2102585
23.7105 39.1842 1.2102585
26.2895 39.1842 1.2102585
28.8684 39.1842 1.2102585
31.4474 39.1842 1.2102585
34.0263 39.1842 1.2102585
36.6053 39.1842 1.2102585
39.1842 39.1842 1.2102585
41.7632 39.1842 1.2102585
44.3421 39.1842 1.2102585
46.9211 39.1842 1.2102585
48.789741 39.1842 1.2102585
1.2102585 41.7632 1.2102585
3.07895 41.7632 1.2102585
5.65789 41.7632 1.2102585
8.23684 41.7632 1.2102585
10.8158 41.7632 1.2102585
13.3947 41.7632 1.2102585
15.9737 41.7632 1.2102585
18.5526 41.7632 1.2102585
21.1316 41.7632 1.2102585
23.7105 41.7632 1.2102585
26.2895 41.7632 1.2102585
28.8684 41.7632 1.2102585
31.4474 41.7632 1.2102585
34.0263 41.7632 1.2102585
36.6053 41.7632 1.2102585
39.1842 41.7632 1.2102585
41.7632 41.7632 1.2102585
44.3421 41.7632 1.2102585
46.9211 41.7632 1.2102585
48.789741 41.7632 1.2102585
1.2102585 44.3421 1.2102585
3.07895 44.3421 1.2102585
5.65789 44.3421 1.2102585
8.23684 44.3421 1.2102585
10.8158 44.3421 1.2102585
13.3947 44.3421 1.2102585
15.9737 44.3421 1.2102585
18.5526 44.3421 1.2102585
21.1316 44.3421 1.2102585
23.7105 44.3421 1.2102585
26.2895 44.3421 1.2102585
28.8684 44.3421 1.2102585
31.4474 44.3421 1.2102585
34.0263 44.3421 1.2102585
36.6053 44.3421 1.2102585
39.1842 44.3421 1.2102585
41.7632 44.3421 1.2102585
44.3421 44.3421 1.2102585
46.9211 44.3421 1.2102585
48.789741 44.3421 1.2102585
1.2102585 46.9211 1.2102585
3.07895 46.9211 1.2102585
5.65789 46.9211 1.2102585
8.23684 46.9211 1.2102585
10.8158 46.9211 1.2102585
13.3947 46.9211 1.2102585
15.9737 46.9211 1.2102585
18.5526 46.9211 1.2102585
21.1316 46.9211 1.2102585
23.7105 46.9211 1.2102585
26.2895 46.9211 1.2102585
28.8684 46.9211 1.2102585
31.4474 46.9211 1.2102585
34.0263 46.9211 1.2102585
36.6053 46.9211 1.2102585
39.1842 46.9211 1.2102585
[...]
POINT_DATA 3000
SCALARS m double
LOOKUP_TABLE default
1
1
1
1
1
1
1
1
1
1
1
1
1
1
1
1
1
1
1
1
1
1
1
1
1
1
1
1
1
1
1
1
1
1
1
1
1
1
1
1
1
1
1
1
1
1
1
1
1
1
1
1
1
1
1
1
1
1
1
1
1
1
1
1
1
1
1
1
1
1
1
1
1
1
1
1
1
1
1
1
1
1
1
1
1
1
1
1
1
1
1
1
1
1
1
1
1
1
1
1
1
1
1
1
1
1
1
1
1
1
1
1
1
1
1
1
1
1
1
1
1
1
1
1
1
1
1
1
1
1
1
1
1
1
1
1
1
1
1
1
1
1
1
1
1
1
1
1
1
1
1
1
1
1
1
1
1
1
1
1
1
1
1
1
1
1
1
1
1
1
1
1
1
1
1
1
1
1
1
1
1
1
1
1
1
1
1
1
1
1
1
1
1
1
1
1
1
1
1
1
1
1
1
1
1
1
1
1
1
1
1
1
1
1
1
1
1
1
1
1
1
1
1
1
1
1
1
1
1
1
1
1
1
1
1
1
1
1
1
1
1
1
1
1
1
1
1
1
1
1
1
1
1
1
1
1
1
1
1
1
1
1
1
1
1
1
1
1
1
1
1
1
1
1
1
1
1
1
1
1
1
1
1
1
1
1
1
1
1
1
1
1
1
1
1
1
1
1
1
1
1
1
1
1
1
1
1
1
1
1
1
1
1
1
1
1
1
1
1
1
1
1
1
1
1
1
1
1
1
1
1
1
1
1
1
1
1
1
1
1
1
1
1
1
1
1
1
1
1
1
1
1
1
1
1
1
1
1
1
1
1
1
1
1
1
1
1
1
1
1
1
1
1
1
1
1
1
1
1
1
1
1
1
1
1
1
1
1
1
1
1
1
1
1
1
1
1
1
1
1
1
1
1
1
1
1
1
1
1
1
1
1
1
1
1
1
1
1
1
1
1
1
1
1
1
1
1
1
1
1
1
1
1
1
1
1
1
1
1
1
1
1
1
1
1
1
1
1
1
1
1
1
1
1
1
1
1
1
1
1
1
1
1
1
1
1
1
1
1
1
1
1
1
1
1
1
1
1
1
1
1
1
1
1
1
1
1
1
1
1
1
1
1
1
1
1
1
1
1
1
1
1
1
1
1
1
1
1
1
1
1
1
1
1
1
1
1
1
1
1
1
1
1
1
1
1
1
1
1
1
1
1
1
1
1
1
1
1
1
1
1
1
1
1
1
1
1
1
1
1
1
1
1
1
1
1
1
1
1
1
1
1
1
1
1
1
1
1
1
1
1
1
1
1
1
1
1
1
1
1
1
1
1
1
1
1
1
1
1
1
1
1
1
1
1
1
1
1
1
1
1
1
1
1
1
1
1
1
1
1
1
1
1
1
1
1
1
1
1
1
1
1
1
1
1
1
1
1
1
1
1
1
1
1
1
1
1
1
1
1
1
1
1
1
1
1
1
1
1
1
1
1
1
1
1
1
1
1
1
1
1
1
1
1
1
1
1
1
1
1
1
1
1
1
1
1
1
1
1
1
1
1
1
1
1
1
1
1
1
1
1
1
1
1
1
1
1
1
1
1
1
1
1
1
1
1
1
1
1
1
1
1
1
1
1
1
1
1
1
1
1
1
1
1
1
1
1
1
1
1
1
1
1
1
1
1
1
1
1
1
1
1
1
1
1
1
1
1
1
1
1
1
1
1
1
1
1
1
1
1
1
1
1
1
1
1
1
1
1
1
1
1
1
1
1
1
1
1
1
1
1
1
1
1
1
1
1
1
1
1
1
1
1
1
1
1
1
1
1
1
1
1
1
1
1
1
1
1
1
1
1
1
1
1
1
1
1
1
1
1
1
1
1
1
1
1
1
1
1
1
1
1
1
1
1
1
1
1
1
1
1
1
1
1
1
1
1
1
1
1
1
1
1
1
1
1
1
1
1
1
1
1
1
1
1
1
1
1
1
1
1
1
1
1
1
1
1
1
1
1
1
1
1
1
1
1
1
1
1
1
1
1
1
1
1
1
1
1
1
1
1
1
1
1
1
1
1
1
1
1
1
1
1
1
1
1
1
1
1
1
1
1
1
1
1
1
1
1
1
1
1
1
1
1
1
1
1
1
1
1
1
1
1
1
1
1
1
1
1
1
1
1
1
1
1
1
1
1
1
1
1
1
1
1
1
1
1
1
1
1
1
1
1
1
1
1
1
1
1
1
1
1
1
1
1
1
1
1
1
1
1
1
1
1
1
1
1
1
1
1
1
1
1
1
1
1
1
1
1
1
1
1
1
1
1
1
1
1
1
1
1
1
1
1
1
1
1
1
1
1
1
1
1
1
1
1
1
1
1
1
1
1
1
1
1
1
1
1
1
1
1
1
1
1
1
1
1
1
1
1
1
1
1
1
1
1
1
1
1
1
1
1
1
1
1
1
1
1
1
1
1
1
1
1
1
1
1
1
1
1
1
1
1
1
1
1
1
1
1
1
1
1
1
1
1
1
1
1
1
1
1
1
1
1
1
1
1
1
1
1
1
1
1
1
1
1
1
1
1
1
1
1
1
1
1
1
1
1
1
1
1
1
1
1
1
1
1
1
1
1
1
1
1
1
1
1
1
1
1
1
1
1
1
1
1
1
1
1
1
1
1
1
1
1
1
1
1
1
1
1
1
1
1
1
1
1
1
1
1
1
1
1
1
1
1
1
1
1
1
1
1
1
1
1
1
1
1
1
1
1
1
1
1
1
1
1
1
1
1
1
1
1
1
1
1
1
1
1
1
1
1
1
1
1
1
1
1
1
1
1
1
1
1
1
1
1
1
1
1
1
1
1
1
1
1
1
1
1
1
1
1
1
1
1
1
1
1
1
1
1
1
1
1
1
1
1
1
1
1
1
1
1
1
1
1
1
1
1
1
1
1
1
1
1
1
1
1
1
1
1
1
1
1
1
1
1
1
1
1
1
1
1
1
1
1
1
1
1
1
1
1
1
1
1
1
1
1
1
1
1
1
1
1
1
1
1
1
1
1
1
1
1
1
1
1
1
1
1
1
1
1
1
1
1
1
1
1
1
1
1
1
1
1
1
1
1
1
1
1
1
1
1
1
1
1
1
1
1
1
1
1
1
1
1
1
1
1
1
1
1
1
1
1
1
1
1
1
1
1
1
1
1
1
1
1
1
1
1
1
1
1
1
1
1
1
1
1
1
1
1
1
1
1
1
1
1
1
1
1
1
1
1
1
1
1
1
1
1
1
1
1
1
1
1
1
1
1
1
1
1
1
1
1
1
1
1
1
1
1
1
1
1
1
1
1
1
1
1
1
1
1
1
1
1
1
1
1
1
1
1
1
1
1
1
1
1
1
1
1
1
1
1
1
1
1
1
1
1
1
1
1
1
1
1
1
1
1
1
1
1
1
1
1
1
1
1
1
1
1
1
1
1
1
1
1
1
1
1
1
1
1
1
1
1
1
1
1
1
1
1
1
1
1
1
1
1
1
1
1
1
1
1
1
1
1
1
1
1
1
1
1
1
1
1
1
1
1
1
1
1
1
1
1
1
1
1
1
1
1
1
1
1
1
1
1
1
1
1
1
1
1
1
1
1
1
1
1
1
1
1
1
1
1
1
1
1
1
1
1
1
1
1
1
1
1
1
1
1
1
1
1
1
1
1
1
1
1
1
1
1
1
1
1
1
1
1
1
1
1
1
1
1
1
1
1
1
1
1
1
1
1
1
1
1
1
1
1
1
1
1
1
1
1
1
1
1
1
1
1
1
1
1
1
1
1
1
1
1
1
1
1
1
1
1
1
1
1
1
1
1
1
1
1
1
1
1
1
1
1
1
1
1
1
1
1
1
1
1
1
1
1
1
1
1
1
1
1
1
1
1
1
1
1
1
1
1
1
1
1
1
1
1
1
1
1
1
1
1
1
1
1
1
1
1
1
1
1
1
1
1
1
1
1
1
1
1
1
1
1
1
1
1
1
1
1
1
1
1
1
1
1
1
1
1
1
1
1
1
1
1
1
1
1
1
1
1
1
1
1
1
1
1
1
1
1
1
1
1
1
1
1
1
1
1
1
1
1
1
1
1
1
1
1
1
1
1
1
1
1
1
1
1
1
1
1
1
1
1
1
1
1
1
1
1
1
1
1
1
1
1
1
1
1
1
1
1
1
1
1
1
1
1
1
1
1
1
1
1
1
1
1
1
1
1
1
1
1
1
1
1
1
1
1
1
1
1
1
1
1
1
1
1
1
1
1
1
1
1
1
1
1
1
1
1
1
1
1
1
1
1
1
1
1
1
1
1
1
1
1
1
1
1
1
1
1
1
1
1
1
1
1
1
1
1
1
1
1
1
1
1
1
1
1
1
1
1
1
1
1
1
1
1
1
1
1
1
1
1
1
1
1
1
1
1
1
1
1
1
1
1
1
1
1
1
1
1
1
1
1
1
1
1
1
1
1
1
1
1
1
1
1
1
1
1
1
1
1
1
1
1
1
1
1
1
1
1
1
1
1
1
1
1
1
1
1
1
1
1
1
1
1
1
1
1
1
1
1
1
1
1
1
1
1
1
1
1
1
1
1
1
1
1
1
1
1
1
1
1
1
1
1
1
1
1
1
1
1
1
1
1
1
1
1
1
1
1
1
1
1
1
1
1
1
1
1
1
1
1
1
1
1
1
1
1
1
1
1
1
1
1
1
1
1
1
1
1
1
1
1
1
1
1
1
1
1
1
1
1
1
1
1
1
1
1
1
1
1
1
1
1
1
1
1
1
1
1
1
1
1
1
1
1
1
1
1
1
1
1
1
1
1
1
1
1
1
1
1
1
1
1
1
1
1
1
1
1
1
1
1
1
1
1
1
1
1
1
1
1
1
1
1
1
1
1
1
1
1
1
1
1
1
1
1
1
1
1
1
1
1
1
1
1
1
1
1
1
1
1
1
1
1
1
1
1
1
1
1
1
1
1
1
1
1
1
1
1
1
1
1
1
1
1
1
1
1
1
1
1
1
1
1
1
1
1
1
1
1
1
1
1
1
1
1
1
1
1
1
1
1
1
1
1
1
1
1
1
1
1
1
1
1
1
1
1
1
1
1
1
1
1
1
1
1
1
1
1
1
1
1
1
1
1
1
1
1
1
1
1
1
1
1
1
1
1
1
1
1
1
1
1
1
1
1
1
1
1
1
1
1
1
1
1
1
1
1
1
1
1
1
1
1
1
1
1
1
1
1
1
1
1
1
1
1
1
1
1
1
1
1
1
1
1
1
1
1
1
1
1
1
1
1
1
1
1
1
1
1
1
1
1
1
1
1
1
1
1
1
1
1
1
1
1
1
1
1
1
1
1
1
1
1
1
1
1
1
1
1
1
1
1
1
1
1
1
1
1
1
1
1
1
1
1
1
1
1
1
1
1
1
1
1
1
1
1
1
1
1
1
1
1
1
1
1
1
1
1
1
1
1
1
1
1
1
1
1
1
1
1
1
1
1
1
1
1
1
1
1
1
1
1
1
1
1
1
1
1
1
1
1
1
1
1
1
1
1
1
1
1
1
1
1
1
1
1
1
1
1
1
1
1
1
1
1
1
1
1
1
1
1
1
1
1
1
1
1
1
1
1
1
1
1
1
1
1
1
1
1
1
1
1
1
1
1
1
1
1
1
1
1
1
1
1
1
1
1
1
1
1
1
1
1
1
1
1
1
1
1
1
1
1
1
1
1
1
1
1
1
1
1
1
1
1
1
1
1
1
1
1
1
1
1
1
1
1
1
1
1
1
1
1
1
1
1
1
1
1
1
1
1
1
1
1
1
1
1
1
1
1
1
1
1
1
1
1
1
1
1
1
1
1
1
1
1
1
1
1
1
1
1
1
1
1
1
1
1
1
1
1
1
1
1
1
1
1
1
1
1
1
1
1
1
1
1
1
1
1
1
1
1
1
1
1
1
1
1
1
1
1
1
1
1
1
1
1
1
1
1
1
1
1
1
1
1
1
1
1
1
1
1
1
1
1
1
1
1
1
1
1
1
1
1
1
1
1
1
1
1
1
1
1
1
1
1
1
1
1
1
1
1
1
1
1
1
1
1
1
1
1
1
1
1
1
1
1
1
1
1
1
1
1
1
1
1
1
1
1
1
1
1
1
1
1
1
1
1
1
1
1
1
1
1
1
1
1
1
1
1
1
1
1
1
1
1
1
1
1
1
1
1
1
1
1
1
1
1
1
1
1
1
1
1
1
1
1
1
1
1
1
1
1
1
1
1
1
1
1
1
1
1
1
1
1
1
1
1
1
1
1
1
1
1
1
1
1
1
1
1
1
1
1
1
1
1
1
1
1
1
1
1
1
1
1
1
1
1
1
1
1
1
1
1
1
1
1
1
1
1
1
1
1
1
1
1
1
1
1
1
1
1
1
1
1
1
1
1
1
1
1
1
1
1
1
1
1
1
1
1
1
1
1
1
1
1
1
1
1
1
1
1
1
1
1
1
1
1
1
1
1
1
1
1
1
1
1
1
1
1
1
1
1
1
1
1
1
1
1
1
1
1
1
1
1
1
1
1
1
1
1
1
1
1
1
1
1
1
1
1
1
1
1
1
1
1
1
1
1
1
1
1
1
1
1
1
1
1
1
1
1
1
1
1
1
1
1
1
1
1
1
1
1
1
1
1
1
1
1
1
1
1
1
1
1
1
1
1
1
1
1
1
1
1
1
1
1
1
1
1
1
1
1
1
1
1
1
1
1
1
1
1
1
1
1
1
1
1
1
1
1
1
1
VECTORS v double
-85.512927 -85.512927 -85.512927
-249.97335 -85.512927 -85.512927
-378.92035 -85.512927 -85.512927
-507.86785 -85.512927 -85.512927
-636.81585 -85.512927 -85.512927
-765.76085 -85.512927 -85.512927
-894.71085 -85.512927 -85.512927
-1023.6559 -85.512927 -85.512927
-1152.6059 -85.512927 -85.512927
-1281.5509 -85.512927 -85.512927
-1410.5009 -85.512927 -85.512927
-1539.4459 -85.512927 -85.512927
-1668.3959 -85.512927 -85.512927
-1797.3409 -85.512927 -85.512927
-1926.2909 -85.512927 -85.512927
-2055.2359 -85.512927 -85.512927
-2184.1859 -85.512927 -85.512927
-2313.1309 -85.512927 -85.512927
-2442.0809 -85.512927 -85.512927
-2606.5388 -85.512927 -85.512927
-85.512927 -249.97335 -85.512927
-249.97335 -249.97335 -85.512927
-378.92035 -249.97335 -85.512927
-507.86785 -249.97335 -85.512927
-636.81585 -249.97335 -85.512927
-765.76085 -249.97335 -85.512927
-894.71085 -249.97335 -85.512927
-1023.6559 -249.97335 -85.512927
-1152.6059 -249.97335 -85.512927
-1281.5509 -249.97335 -85.512927
-1410.5009 -249.97335 -85.512927
-1539.4459 -249.97335 -85.512927
-1668.3959 -249.97335 -85.512927
-1797.3409 -249.97335 -85.512927
-1926.2909 -249.97335 -85.512927
-2055.2359 -249.97335 -85.512927
-2184.1859 -249.97335 -85.512927
-2313.1309 -249.97335 -85.512927
-2442.0809 -249.97335 -85.512927
-2606.5388 -249.97335 -85.512927
-85.512927 -378.92035 -85.512927
-249.97335 -378.92035 -85.512927
-378.92035 -378.92035 -85.512927
-507.86785 -378.92035 -85.512927
-636.81585 -378.92035 -85.512927
-765.76085 -378.92035 -85.512927
-894.71085 -378.92035 -85.512927
-1023.6559 -378.92035 -85.512927
-1152.6059 -378.92035 -85.512927
-1281.5509 -378.92035 -85.512927
-1410.5009 -378.92035 -85.512927
-1539.4459 -378.92035 -85.512927
-1668.3959 -378.92035 -85.512927
-1797.3409 -378.92035 -85.512927
-1926.2909 -378.92035 -85.512927
-2055.2359 -378.92035 -85.512927
-2184.1859 -378.92035 -85.512927
-2313.1309 -378.92035 -85.512927
-2442.0809 -378.92035 -85.512927
-2606.5388 -378.92035 -85.512927
-85.512927 -507.86785 -85.512927
-249.97335 -507.86785 -85.512927
-378.92035 -507.86785 -85.512927
-507.86785 -507.86785 -85.512927
-636.81585 -507.86785 -85.512927
-765.76085 -507.86785 -85.512927
-894.71085 -507.86785 -85.512927
-1023.6559 -507.86785 -85.512927
-1152.6059 -507.86785 -85.512927
-1281.5509 -507.86785 -85.512927
-1410.5009 -507.86785 -85.512927
-1539.4459 -507.86785 -85.512927
-1668.3959 -507.86785 -85.512927
-1797.3409 -507.86785 -85.512927
-1926.2909 -507.86785 -85.512927
-2055.2359 -507.86785 -85.512927
-2184.1859 -507.86785 -85.512927
-2313.1309 -507.86785 -85.512927
-2442.0809 -507.86785 -85.512927
-2606.5388 -507.86785 -85.512927
-85.512927 -636.81585 -85.512927
-249.97335 -636.81585 -85.512927
-378.92035 -636.81585 -85.512927
-507.86785 -636.81585 -85.512927
-636.81585 -636.81585 -85.512927
-765.76085 -636.81585 -85.512927
-894.71085 -636.81585 -85.512927
-1023.6559 -636.81585 -85.512927
-1152.6059 -636.81585 -85.512927
-1281.5509 -636.81585 -85.512927
-1410.5009 -636.81585 -85.512927
-1539.4459 -636.81585 -85.512927
-1668.3959 -636.81585 -85.512927
-1797.3409 -636.81585 -85.512927
-1926.2909 -636.81585 -85.512927
-2055.2359 -636.81585 -85.512927
-2184.1859 -636.81585 -85.512927
-2313.1309 -636.81585 -85.512927
-2442.0809 -636.81585 -85.512927
-2606.5388 -636.81585 -85.512927
-85.512927 -765.76085 -85.512927
-249.97335 -765.76085 -85.512927
-378.92035 -765.76085 -85.512927
-507.86785 -765.76085 -85.512927
-636.81585 -765.76085 -85.512927
-765.76085 -765.76085 -85.512927
-894.71085 -765.76085 -85.512927
-1023.6559 -765.76085 -85.512927
-1152.6059 -765.76085 -85.512927
-1281.5509 -765.76085 -85.512927
-1410.5009 -765.76085 -85.512927
-1539.4459 -765.76085 -85.512927
-1668.3959 -765.76085 -85.512927
-1797.3409 -765.76085 -85.512927
-1926.2909 -765.76085 -85.512927
-2055.2359 -765.76085 -85.512927
-2184.1859 -765.76085 -85.512927
-2313.1309 -765.76085 -85.512927
-2442.0809 -765.76085 -85.512927
-2606.5388 -765.76085 -85.512927
-85.512927 -894.71085 -85.512927
-249.97335 -894.71085 -85.512927
-378.92035 -894.71085 -85.512927
-507.86785 -894.71085 -85.512927
-636.81585 -894.71085 -85.512927
-765.76085 -894.71085 -85.512927
-894.71085 -894.71085 -85.512927
-1023.6559 -894.71085 -85.512927
-1152.6059 -894.71085 -85.512927
-1281.5509 -894.71085 -85.512927
-1410.5009 -894.71085 -85.512927
-1539.4459 -894.71085 -85.512927
-1668.3959 -894.71085 -85.512927
-1797.3409 -894.71085 -85.512927
-1926.2909 -894.71085 -85.512927
-2055.2359 -894.71085 -85.512927
-2184.1859 -894.71085 -85.512927
-2313.1309 -894.71085 -85.512927
-2442.0809 -894.71085 -85.512927
-2606.5388 -894.71085 -85.512927
-85.512927 -1023.6559 -85.512927
-249.97335 -1023.6559 -85.512927
-378.92035 -1023.6559 -85.512927
-507.86785 -1023.6559 -85.512927
-636.81585 -1023.6559 -85.512927
-765.76085 -1023.6559 -85.512927
-894.71085 -1023.6559 -85.512927
-1023.6559 -1023.6559 -85.512927
-1152.6059 -1023.6559 -85.512927
-1281.5509 -1023.6559 -85.512927
-1410.5009 -1023.6559 -85.512927
-1539.4459 -1023.6559 -85.512927
-1668.3959 -1023.6559 -85.512927
-1797.3409 -1023.6559 -85.512927
-1926.2909 -1023.6559 -85.512927
-2055.2359 -1023.6559 -85.512927
-2184.1859 -1023.6559 -85.512927
-2313.1309 -1023.6559 -85.512927
-2442.0809 -1023.6559 -85.512927
-2606.5388 -1023.6559 -85.512927
-85.512927 -1152.6059 -85.512927
-249.97335 -1152.6059 -85.512927
-378.92035 -1152.6059 -85.512927
-507.86785 -1152.6059 -85.512927
-636.81585 -1152.6059 -85.512927
-765.76085 -1152.6059 -85.512927
-894.71085 -1152.6059 -85.512927
-1023.6559 -1152.6059 -85.512927
-1152.6059 -1152.6059 -85.512927
-1281.5509 -1152.6059 -85.512927
-1410.5009 -1152.6059 -85.512927
-1539.4459 -1152.6059 -85.512927
-1668.3959 -1152.6059 -85.512927
-1797.3409 -1152.6059 -85.512927
-1926.2909 -1152.6059 -85.512927
-2055.2359 -1152.6059 -85.512927
-2184.1859 -1152.6059 -85.512927
-2313.1309 -1152.6059 -85.512927
-2442.0809 -1152.6059 -85.512927
-2606.5388 -1152.6059 -85.512927
-85.512927 -1281.5509 -85.512927
-249.97335 -1281.5509 -85.512927
-378.92035 -1281.5509 -85.512927
-507.86785 -1281.5509 -85.512927
-636.81585 -1281.5509 -85.512927
-765.76085 -1281.5509 -85.512927
-894.71085 -1281.5509 -85.512927
-1023.6559 -1281.5509 -85.512927
-1152.6059 -1281.5509 -85.512927
-1281.5509 -1281.5509 -85.512927
-1410.5009 -1281.5509 -85.512927
-1539.4459 -1281.5509 -85.512927
-1668.3959 -1281.5509 -85.512927
-1797.3409 -1281.5509 -85.512927
-1926.2909 -1281.5509 -85.512927
-2055.2359 -1281.5509 -85.512927
-2184.1859 -1281.5509 -85.512927
-2313.1309 -1281.5509 -85.512927
-2442.0809 -1281.5509 -85.512927
-2606.5388 -1281.5509 -85.512927
-85.512927 -1410.5009 -85.512927
-249.97335 -1410.5009 -85.512927
-378.92035 -1410.5009 -85.512927
-507.86785 -1410.5009 -85.512927
-636.81585 -1410.5009 -85.512927
-765.76085 -1410.5009 -85.512927
-894.71085 -1410.5009 -85.512927
-1023.6559 -1410.5009 -85.512927
-1152.6059 -1410.5009 -85.512927
-1281.5509 -1410.5009 -85.512927
-1410.5009 -1410.5009 -85.512927
-1539.4459 -1410.5009 -85.512927
-1668.3959 -1410.5009 -85.512927
-1797.3409 -1410.5009 -85.512927
-1926.2909 -1410.5009 -85.512927
-2055.2359 -1410.5009 -85.512927
-2184.1859 -1410.5009 -85.512927
-2313.1309 -1410.5009 -85.512927
-2442.0809 -1410.5009 -85.512927
-2606.5388 -1410.5009 -85.512927
-85.512927 -1539.4459 -85.512927
-249.97335 -1539.4459 -85.512927
-378.92035 -1539.4459 -85.512927
-507.86785 -1539.4459 -85.512927
-636.81585 -1539.4459 -85.512927
-765.76085 -1539.4459 -85.512927
-894.71085 -1539.4459 -85.512927
-1023.6559 -1539.4459 -85.512927
-1152.6059 -1539.4459 -85.512927
-1281.5509 -1539.4459 -85.512927
-1410.5009 -1539.4459 -85.512927
-1539.4459 -1539.4459 -85.512927
-1668.3959 -1539.4459 -85.512927
-1797.3409 -1539.4459 -85.512927
-1926.2909 -1539.4459 -85.512927
-2055.2359 -1539.4459 -85.512927
-2184.1859 -1539.4459 -85.512927
-2313.1309 -1539.4459 -85.512927
-2442.0809 -1539.4459 -85.512927
-2606.5388 -1539.4459 -85.512927
-85.512927 -1668.3959 -85.512927
-249.97335 -1668.3959 -85.512927
-378.92035 -1668.3959 -85.512927
-507.86785 -1668.3959 -85.512927
-636.81585 -1668.3959 -85.512927
-765.76085 -1668.3959 -85.512927
-894.71085 -1668.3959 -85.512927
-1023.6559 -1668.3959 -85.512927
-1152.6059 -1668.3959 -85.512927
-1281.5509 -1668.3959 -85.512927
-1410.5009 -1668.3959 -85.512927
-1539.4459 -1668.3959 -85.512927
-1668.3959 -1668.3959 -85.512927
-1797.3409 -1668.3959 -85.512927
-1926.2909 -1668.3959 -85.512927
-2055.2359 -1668.3959 -85.512927
-2184.1859 -1668.3959 -85.512927
-2313.1309 -1668.3959 -85.512927
-2442.0809 -1668.3959 -85.512927
-2606.5388 -1668.3959 -85.512927
-85.512927 -1797.3409 -85.512927
-249.97335 -1797.3409 -85.512927
-378.92035 -1797.3409 -85.512927
-507.86785 -1797.3409 -85.512927
-636.81585 -1797.3409 -85.512927
-765.76085 -1797.3409 -85.512927
-894.71085 -1797.3409 -85.512927
-1023.6559 -1797.3409 -85.512927
-1152.6059 -1797.3409 -85.512927
-1281.5509 -1797.3409 -85.512927
-1410.5009 -1797.3409 -85.512927
-1539.4459 -1797.3409 -85.512927
-1668.3959 -1797.3409 -85.512927
-1797.3409 -1797.3409 -85.512927
-1926.2909 -1797.3409 -85.512927
-2055.2359 -1797.3409 -85.512927
-2184.1859 -1797.3409 -85.512927
-2313.1309 -1797.3409 -85.512927
-2442.0809 -1797.3409 -85.512927
-2606.5388 -1797.3409 -85.512927
-85.512927 -1926.2909 -85.512927
-249.97335 -1926.2909 -85.512927
-378.92035 -1926.2909 -85.512927
-507.86785 -1926.2909 -85.512927
-636.81585 -1926.2909 -85.512927
-765.76085 -1926.2909 -85.512927
-894.71085 -1926.2909 -85.512927
-1023.6559 -1926.2909 -85.512927
-1152.6059 -1926.2909 -85.512927
-1281.5509 -1926.2909 -85.512927
-1410.5009 -1926.2909 -85.512927
-1539.4459 -1926.2909 -85.512927
-1668.3959 -1926.2909 -85.512927
-1797.3409 -1926.2909 -85.512927
-1926.2909 -1926.2909 -85.512927
-2055.2359 -1926.2909 -85.512927
-2184.1859 -1926.2909 -85.512927
-2313.1309 -1926.2909 -85.512927
-2442.0809 -1926.2909 -85.512927
-2606.5388 -1926.2909 -85.512927
-85.512927 -2055.2359 -85.512927
-249.97335 -2055.2359 -85.512927
-378.92035 -2055.2359 -85.512927
-507.86785 -2055.2359 -85.512927
-636.81585 -2055.2359 -85.512927
-765.76085 -2055.2359 -85.512927
-894.71085 -2055.2359 -85.512927
-1023.6559 -2055.2359 -85.512927
-1152.6059 -2055.2359 -85.512927
-1281.5509 -2055.2359 -85.512927
-1410.5009 -2055.2359 -85.512927
-1539.4459 -2055.2359 -85.512927
-1668.3959 -2055.2359 -85.512927
-1797.3409 -2055.2359 -85.512927
-1926.2909 -2055.2359 -85.512927
-2055.2359 -2055.2359 -85.512927
-2184.1859 -2055.2359 -85.512927
-2313.1309 -2055.2359 -85.512927
-2442.0809 -2055.2359 -85.512927
-2606.5388 -2055.2359 -85.512927
-85.512927 -2184.1859 -85.512927
-249.97335 -2184.1859 -85.512927
-378.92035 -2184.1859 -85.512927
-507.86785 -2184.1859 -85.512927
-636.81585 -2184.1859 -85.512927
-765.76085 -2184.1859 -85.512927
-894.71085 -2184.1859 -85.512927
-1023.6559 -2184.1859 -85.512927
-1152.6059 -2184.1859 -85.512927
-1281.5509 -2184.1859 -85.512927
-1410.5009 -2184.1859 -85.512927
-1539.4459 -2184.1859 -85.512927
-1668.3959 -2184.1859 -85.512927
-1797.3409 -2184.1859 -85.512927
-1926.2909 -2184.1859 -85.512927
-2055.2359 -2184.1859 -85.512927
-2184.1859 -2184.1859 -85.512927
-2313.1309 -2184.1859 -85.512927
-2442.0809 -2184.1859 -85.512927
-2606.5388 -2184.1859 -85.512927
-85.512927 -2313.1309 -85.512927
-249.97335 -2313.1309 -85.512927
-378.92035 -2313.1309 -85.512927
-507.86785 -2313.1309 -85.512927
-636.81585 -2313.1309 -85.512927
-765.76085 -2313.1309 -85.512927
-894.71085 -2313.1309 -85.512927
-1023.6559 -2313.1309 -85.512927
-1152.6059 -2313.1309 -85.512927
-1281.5509 -2313.1309 -85.512927
-1410.5009 -2313.1309 -85.512927
-1539.4459 -2313.1309 -85.512927
-1668.3959 -2313.1309 -85.512927
-1797.3409 -2313.1309 -85.512927
-1926.2909 -2313.1309 -85.512927
-2055.2359 -2313.1309 -85.512927
-2184.1859 -2313.1309 -85.512927
-2313.1309 -2313.1309 -85.512927
-2442.0809 -2313.1309 -85.512927
-2606.5388 -2313.1309 -85.512927
-85.512927 -2442.0809 -85.512927
-249.97335 -2442.0809 -85.512927
-378.92035 -2442.0809 -85.512927
-507.86785 -2442.0809 -85.512927
-636.81585 -2442.0809 -85.512927
-765.76085 -2442.0809 -85.512927
-894.71085 -2442.0809 -85.512927
-1023.6559 -2442.0809 -85.512927
-1152.6059 -2442.0809 -85.512927
-1281.5509 -2442.0809 -85.512927
-1410.5009 -2442.0809 -85.512927
-1539.4459 -2442.0809 -85.512927
-1668.3959 -2442.0809 -85.512927
-1797.3409 -2442.0809 -85.512927
-1926.2909 -2442.0809 -85.512927
-2055.2359 -2442.0809 -85.512927
-2184.1859 -2442.0809 -85.512927
-2313.1309 -2442.0809 -85.512927
-2442.0809 -2442.0809 -85.512927
-2606.5388 -2442.0809 -85.512927
-85.512927 -2606.5388 -85.512927
-249.97335 -2606.5388 -85.512927
-378.92035 -2606.5388 -85.512927
-507.86785 -2606.5388 -85.512927
-636.81585 -2606.5388 -85.512927
-765.76085 -2606.5388 -85.512927
-894.71085 -2606.5388 -85.512927
-1023.6559 -2606.5388 -85.512927
-1152.6059 -2606.5388 -85.512927
-1281.5509 -2606.5388 -85.512927
-1410.5009 -2606.5388 -85.512927
-1539.4459 -2606.5388 -85.512927
-1668.3959 -2606.5388 -85.512927
-1797.3409 -2606.5388 -85.512927
-1926.2909 -2606.5388 -85.512927
-2055.2359 -2606.5388 -85.512927
-2184.1859 -2606.5388 -85.512927
-2313.1309 -2606.5388 -85.512927
-2442.0809 -2606.5388 -85.512927
-2606.5388 -2606.5388 -85.512927
-85.512927 -85.512927 -249.97335
-249.97335 -85.512927 -249.97335
-378.92035 -85.512927 -249.97335
-507.86785 -85.512927 -249.97335
-636.81585 -85.512927 -249.97335
-765.76085 -85.512927 -249.97335
-894.71085 -85.512927 -249.97335
-1023.6559 -85.512927 -249.97335
-1152.6059 -85.512927 -249.97335
-1281.5509 -85.512927 -249.97335
-1410.5009 -85.512927 -249.97335
-1539.4459 -85.512927 -249.97335
-1668.3959 -85.512927 -249.97335
-1797.3409 -85.512927 -249.97335
-1926.2909 -85.512927 -249.97335
-2055.2359 -85.512927 -249.97335
-2184.1859 -85.512927 -249.97335
-2313.1309 -85.512927 -249.97335
-2442.0809 -85.512927 -249.97335
-2606.5388 -85.512927 -249.97335
-85.512927 -249.97335 -249.97335
-249.97335 -249.97335 -249.97335